LAMMPS FENE chain data file 

10  atoms          
9  bonds          
9  angles         
0  dihedrals      
0  impropers    

4  atom types     
2  bond types     
2  angle types    
0  dihedral types 
0  improper types 

-5.000000 5.000000 xlo xhi  
-5.000000 5.000000 ylo yhi  
-5.000000 5.000000 zlo zhi  

Masses

	 1 1.0 
	 2 1.0 
	 3 1.0 
	 4 1.0 

Atoms 

	 1 1 1 -0.4331276569647413 1.0203066025033924 -2.3711283425507332 0 0 0 
	 2 1 2 -0.7959489741912336 0.3061950831565814 -1.8419729497763404 0 0 0 
	 3 1 2 -1.1587702914177258 -0.40791643619022966 -1.3128175570019476 0 0 0 
	 5 1 2 0.1480407008015625 0.8232634682982443 -3.109381241761992 0 0 0 
	 6 1 2 0.7292090585678663 0.6262203340930961 -3.847634140973251 0 0 0 
	 8 1 2 -0.6514746975045526 1.9314612560553512 -2.1620308361138676 0 0 0 
	 9 1 2 -0.8698217380443638 2.84261590960731 -1.9529333296770017 0 0 0 
	 4 1 3 -1.3704160597998463 -0.8244814891425358 -1.0041435778835517 0 0 0 
	 7 1 3 1.0682239339315434 0.5112785058067597 -4.278281665513152 0 0 0 
	 10 1 3 -0.9971908450259206 3.374122790845953 -1.8309597842554965 0 0 0 


Bonds 

	 1 1 1 2 
	 2 1 2 3 
	 3 1 1 5 
	 4 1 5 6 
	 5 1 1 8 
	 6 1 8 9 
	 7 2 3 4 
	 8 2 6 7 
	 9 2 9 10 


Angles 

	 1 1 2 1 5 
	 2 1 5 1 8 
	 3 1 8 1 2 
	 4 2 1 2 3 
	 5 2 2 3 4 
	 6 2 1 5 6 
	 7 2 5 6 7 
	 8 2 1 8 9 
	 9 2 8 9 10 
