LAMMPS FENE chain data file 

40  atoms          
36  bonds          
36  angles         
0  dihedrals      
0  impropers    

4  atom types     
2  bond types     
3  angle types    
0  dihedral types 
0  improper types 

-10.000000 10.000000 xlo xhi  
-10.000000 10.000000 ylo yhi  
-10.000000 10.000000 zlo zhi  

Masses

	 1 1.0 
	 2 1.0 
	 3 1.0 
	 4 1.0 

Atoms 

	 1 1 1 2.620678005229893 -5.092416781473823 0.3420841365227223 0 0 0 
	 2 1 2 3.0229369861950603 -4.301747577989158 0.7585333205701756 0 0 0 
	 3 1 2 3.425195967160228 -3.5110783745044922 1.174982504617629 0 0 0 
	 5 1 2 4.229713929090563 -1.9297399675351619 2.0078808727125357 0 0 0 
	 6 1 2 4.6319729100557305 -1.139070764050496 2.42433005675999 0 0 0 
	 8 1 2 5.436490871986065 0.4422676429188339 3.257228424854896 0 0 0 
	 9 1 2 5.838749852951233 1.2329368464034989 3.673677608902349 0 0 0 
	 4 1 3 3.8274549481253954 -2.720409171019827 1.5914316886650828 0 0 0 
	 7 1 3 5.034231891020898 -0.34840156056583105 2.8407792408074433 0 0 0 
	 10 1 3 6.241008833916401 2.023606049888164 4.090126792949803 0 0 0 
	 11 2 1 -6.548668170019969 4.365382500144288 -5.363004572623613 0 0 0 
	 12 2 2 -5.7311650162251455 3.863598506565998 -5.563756701688635 0 0 0 
	 13 2 2 -4.913661862430321 3.361814512987708 -5.764508830753657 0 0 0 
	 15 2 2 -3.278655554840674 2.358246525831128 -6.166013088883702 0 0 0 
	 16 2 2 -2.46115240104585 1.856462532252837 -6.366765217948725 0 0 0 
	 18 2 2 -0.8261460934562033 0.8528945450962575 -6.768269476078769 0 0 0 
	 19 2 2 -0.008642939661378968 0.35111055151796755 -6.969021605143792 0 0 0 
	 14 2 4 -4.096158708635498 2.8600305194094178 -5.96526095981868 0 0 0 
	 17 2 4 -1.6436492472510267 1.3546785386745475 -6.567517347013747 0 0 0 
	 20 2 4 0.8088602141334453 -0.15067344206032285 -7.169773734208814 0 0 0 
	 21 3 1 -1.0788450115873216 -2.8401843274121408 4.739177888061201 0 0 0 
	 22 3 2 -0.6234175653471784 -2.181476945842793 4.174296992051047 0 0 0 
	 23 3 2 -0.1679901191070352 -1.5227695642734451 3.6094160960408925 0 0 0 
	 25 3 2 0.7428647733732512 -0.20535480113474947 2.479654304020584 0 0 0 
	 26 3 2 1.198292219613394 0.4533525804345988 1.9147734080104288 0 0 0 
	 28 3 2 2.1091471120936807 1.7707673435732936 0.7850116159901201 0 0 0 
	 29 3 2 2.564574558333824 2.429474725142642 0.22013071997996647 0 0 0 
	 24 3 3 0.2874373271331079 -0.8640621827040971 3.0445352000307375 0 0 0 
	 27 3 3 1.6537196658535374 1.1120599620039466 1.3498925120002738 0 0 0 
	 30 3 3 3.020002004573967 3.088182106711991 -0.344750176030189 0 0 0 
	 31 4 1 8.70573434801183 -4.633873881098134 9.615113474814596 0 0 0 
	 32 4 2 8.576300479093632 -4.972288179987888 8.704551760330716 0 0 0 
	 33 4 2 8.446866610175434 -5.310702478877643 7.7939900458468365 0 0 0 
	 35 4 2 8.187998872339037 -5.987531076657152 5.9728666168790765 0 0 0 
	 36 4 2 8.058565003420838 -6.325945375546906 5.062304902395196 0 0 0 
	 38 4 2 7.7996972655844425 -7.0027739733264145 3.241181473427437 0 0 0 
	 39 4 2 7.670263396666245 -7.341188272216169 2.3306197589435573 0 0 0 
	 34 4 4 8.317432741257235 -5.649116777767397 6.883428331362955 0 0 0 
	 37 4 4 7.929131134502641 -6.66435967443666 4.151743187911316 0 0 0 
	 40 4 4 7.540829527748047 -7.679602571105924 1.420058044459676 0 0 0 


Bonds 

	 1 1 1 2 
	 2 1 2 3 
	 3 1 1 5 
	 4 1 5 6 
	 5 1 1 8 
	 6 1 8 9 
	 7 2 3 4 
	 8 2 6 7 
	 9 2 9 10 
	 10 1 11 12 
	 11 1 12 13 
	 12 1 11 15 
	 13 1 15 16 
	 14 1 11 18 
	 15 1 18 19 
	 16 2 13 14 
	 17 2 16 17 
	 18 2 19 20 
	 19 1 21 22 
	 20 1 22 23 
	 21 1 21 25 
	 22 1 25 26 
	 23 1 21 28 
	 24 1 28 29 
	 25 2 23 24 
	 26 2 26 27 
	 27 2 29 30 
	 28 1 31 32 
	 29 1 32 33 
	 30 1 31 35 
	 31 1 35 36 
	 32 1 31 38 
	 33 1 38 39 
	 34 2 33 34 
	 35 2 36 37 
	 36 2 39 40 


Angles 

	 1 1 2 1 5 
	 2 1 5 1 8 
	 3 1 8 1 2 
	 4 2 1 2 3 
	 5 3 2 3 4 
	 6 2 1 5 6 
	 7 3 5 6 7 
	 8 2 1 8 9 
	 9 3 8 9 10 
	 10 1 12 11 15 
	 11 1 15 11 18 
	 12 1 18 11 12 
	 13 2 11 12 13 
	 14 3 12 13 14 
	 15 2 11 15 16 
	 16 3 15 16 17 
	 17 2 11 18 19 
	 18 3 18 19 20 
	 19 1 22 21 25 
	 20 1 25 21 28 
	 21 1 28 21 22 
	 22 2 21 22 23 
	 23 3 22 23 24 
	 24 2 21 25 26 
	 25 3 25 26 27 
	 26 2 21 28 29 
	 27 3 28 29 30 
	 28 1 32 31 35 
	 29 1 35 31 38 
	 30 1 38 31 32 
	 31 2 31 32 33 
	 32 3 32 33 34 
	 33 2 31 35 36 
	 34 3 35 36 37 
	 35 2 31 38 39 
	 36 3 38 39 40 
