LAMMPS FENE chain data file 

1000  atoms          
900  bonds          
900  angles         
0  dihedrals      
0  impropers    

4  atom types     
2  bond types     
2  angle types    
0  dihedral types 
0  improper types 

-11.000000 11.000000 xlo xhi  
-11.000000 11.000000 ylo yhi  
-11.000000 11.000000 zlo zhi  

Masses

	 1 1.0 
	 2 1.0 
	 3 1.0 
	 4 1.0 

Atoms 

	 1 1 1 -2.1871946556113846 0.021574970329682808 -0.8400312716808465 0 0 0 
	 2 1 2 -2.3761168005862223 -0.6560962991279874 -1.4932311443765907 0 0 0 
	 3 1 2 -2.5650389455610596 -1.3337675685856576 -2.146431017072335 0 0 0 
	 5 1 2 -2.283975763537549 0.9489139908973663 -1.068670196803306 0 0 0 
	 6 1 2 -2.3807568714637135 1.8762530114650497 -1.297309121925766 0 0 0 
	 8 1 2 -1.9014914027103826 -0.22809278078033016 0.041807526137357165 0 0 0 
	 9 1 2 -1.6157881498093807 -0.4777605318903431 0.9236463239555608 0 0 0 
	 4 1 3 -2.675243530129715 -1.7290758091026317 -2.5274642761448525 0 0 0 
	 7 1 3 -2.4372125177539763 2.4172007734628647 -1.4306818282472007 0 0 0 
	 10 1 3 -1.4491279189504627 -0.6234000533711843 1.4380522893495131 0 0 0 
	 11 2 1 9.022371866659066 -0.6008099232614279 -9.294775412254847 0 0 0 
	 12 2 2 9.284153469795498 -1.2736780729594153 -8.662067861026536 0 0 0 
	 13 2 2 9.545935072931929 -1.9465462226574026 -8.029360309798223 0 0 0 
	 15 2 2 9.446888104308648 0.2601487687531443 -9.283109452525805 0 0 0 
	 16 2 2 9.87140434195823 1.1211074607677165 -9.271443492796761 0 0 0 
	 18 2 2 8.336074025873051 -0.7889004655780125 -9.939148923212201 0 0 0 
	 19 2 2 7.649776185087037 -0.976991007894597 -10.583522434169556 0 0 0 
	 14 2 4 9.698641008094848 -2.339052643314562 -7.660280904915042 0 0 0 
	 17 2 4 10.119038813920488 1.6233333644428838 -9.264638349621487 0 0 0 
	 20 2 4 7.249435777961862 -1.0867104909126049 -10.95940698222801 0 0 0 
	 21 3 1 2.634217071997983 -8.262540026639016 -6.056556809011399 0 0 0 
	 22 3 2 1.8894319830885347 -7.791729320233522 -6.4376505639748 0 0 0 
	 23 3 2 1.1446468941790864 -7.320918613828027 -6.818744318938201 0 0 0 
	 25 3 2 3.0586975363752993 -7.927675009335923 -5.263283996198166 0 0 0 
	 26 3 2 3.483178000752615 -7.592809992032831 -4.470011183384933 0 0 0 
	 28 3 2 2.954521696530116 -9.068215750347603 -6.4687358668612305 0 0 0 
	 29 3 2 3.2748263210622484 -9.873891474056188 -6.880914924711062 0 0 0 
	 24 3 3 0.7101889256485747 -7.046279035091489 -7.041049009333517 0 0 0 
	 27 3 3 3.730791604972716 -7.3974720652726935 -4.007268709243881 0 0 0 
	 30 3 3 3.461670685372659 -10.343868979552864 -7.121352708456797 0 0 0 
	 31 4 1 1.165266036713122 2.8935361336508665 3.946742767955271 0 0 0 
	 32 4 2 0.37560601197445154 2.3499505457387233 3.8962278796159704 0 0 0 
	 33 4 2 -0.41405401276421894 1.8063649578265797 3.84571299127667 0 0 0 
	 35 4 2 2.0244210942215677 2.482095200004637 4.065776146794899 0 0 0 
	 36 4 2 2.8835761517300136 2.0706542663584075 4.184809525634528 0 0 0 
	 38 4 2 1.095771003943347 3.848562655209239 3.8782242774549425 0 0 0 
	 39 4 2 1.0262759711735723 4.803589176767611 3.8097057869546145 0 0 0 
	 34 4 4 -0.8746890271951104 1.4892733648778296 3.8162459730787446 0 0 0 
	 37 4 4 3.3847499352766066 1.830647055064774 4.254245663290979 0 0 0 
	 40 4 4 0.9857372020578701 5.360687981009995 3.7697366674960895 0 0 0 
	 41 5 1 -1.8885118124738722 6.456226751016368 -0.6124628177285898 0 0 0 
	 42 5 2 -2.60387481137632 7.063396302480792 -0.8154429043769739 0 0 0 
	 43 5 2 -3.3192378102787687 7.670565853945217 -1.018422991025358 0 0 0 
	 45 5 2 -2.0022501773747208 5.7917916671926815 0.07104987691130649 0 0 0 
	 46 5 2 -2.115988542275569 5.127356583368995 0.7545625715512028 0 0 0 
	 48 5 2 -1.059410448670576 6.51349228337563 -1.0929954257201018 0 0 0 
	 49 5 2 -0.23030908486727952 6.570757815734892 -1.5735280337116138 0 0 0 
	 44 5 3 -3.736532892971863 8.024748092299465 -1.1368280415702487 0 0 0 
	 47 5 3 -2.182335921801064 4.739769451138511 1.1532783100911426 0 0 0 
	 50 5 3 0.25333337735131 6.604162709611128 -1.8538387217066623 0 0 0 
	 51 6 1 -2.049805402286719 -3.9489961119630332 -6.877049033600197 0 0 0 
	 52 6 2 -1.9535020468313915 -3.2064051576445145 -7.477785530154515 0 0 0 
	 53 6 2 -1.857198691376064 -2.4638142033259958 -8.078522026708834 0 0 0 
	 55 6 2 -1.2787604516276354 -4.311986503481549 -6.4350901444166375 0 0 0 
	 56 6 2 -0.5077155009685514 -4.674976895000064 -5.993131255233077 0 0 0 
	 58 6 2 -2.91715370840113 -4.328596674763037 -6.718271426229438 0 0 0 
	 59 6 2 -3.784502014515541 -4.70819723756304 -6.559493818858679 0 0 0 
	 54 6 4 -1.801021734027123 -2.030636146640193 -8.428951649698853 0 0 0 
	 57 6 4 -0.05793927975075275 -4.886721290052532 -5.735321903209335 0 0 0 
	 60 6 4 -4.2904551930822805 -4.929630899196375 -6.466873547892403 0 0 0 
	 61 7 1 -3.0046155717680056 -0.04175872640923273 2.5565432424267085 0 0 0 
	 62 7 2 -3.4547280468592305 0.6315132527244569 2.0410787898398635 0 0 0 
	 63 7 2 -3.9048405219504554 1.3047852318581465 1.5256143372530189 0 0 0 
	 65 7 2 -2.2260253069512204 0.1870201357474095 3.0694344899274237 0 0 0 
	 66 7 2 -1.4474350421344349 0.4157989979040517 3.582325737428139 0 0 0 
	 68 7 2 -3.3330933614935656 -0.9438095676995646 2.5591164475128383 0 0 0 
	 69 7 2 -3.6615711512191256 -1.8458604089898965 2.561689652598968 0 0 0 
	 64 7 3 -4.1674061324203375 1.6975272196861324 1.2249267399106925 0 0 0 
	 67 7 3 -0.9932573876579767 0.549253334162093 3.881512298470223 0 0 0 
	 70 7 3 -3.8531831952257027 -2.3720567330759232 2.56319068889921 0 0 0 
	 71 8 1 -4.480919607240189 7.615664937051258 3.585048842458212 0 0 0 
	 72 8 2 -5.403700195993263 7.424997501364011 3.768684116817416 0 0 0 
	 73 8 2 -6.3264807847463365 7.234330065676764 3.95231939117662 0 0 0 
	 75 8 2 -3.873494895360505 6.899760067380047 3.384760457924984 0 0 0 
	 76 8 2 -3.2660701834808212 6.183855197708837 3.184472073391756 0 0 0 
	 78 8 2 -4.165563730366799 8.522237242409714 3.601701952632236 0 0 0 
	 79 8 2 -3.850207853493409 9.428809547768171 3.6183550628062595 0 0 0 
	 74 8 4 -6.8647694615189625 7.123107394859204 4.0594399678861555 0 0 0 
	 77 8 4 -2.9117391015510052 5.7662440237339645 3.0676371824140403 0 0 0 
	 80 8 4 -3.666250258650598 9.957643392560605 3.62806937707444 0 0 0 
	 81 9 1 -9.878291300840962 6.435411319474093 7.920259624454016 0 0 0 
	 82 9 2 -9.661168121085547 6.02328232603897 7.080850774379721 0 0 0 
	 83 9 2 -9.44404494133013 5.611153332603848 6.241441924305426 0 0 0 
	 85 9 2 -10.302643472931216 5.921950142749344 8.61155034046192 0 0 0 
	 86 9 2 -10.72699564502147 5.408488966024596 9.302841056469823 0 0 0 
	 88 9 2 -9.671062308506125 7.3610014896339635 8.068377758520407 0 0 0 
	 89 9 2 -9.463833316171286 8.286591659793833 8.2164958925868 0 0 0 
	 84 9 3 -9.317389753139471 5.370744753100027 5.751786761762087 0 0 0 
	 87 9 3 -10.974534412074117 5.108969946268492 9.706093974141101 0 0 0 
	 90 9 3 -9.342949737309297 8.826519259053757 8.302898137458861 0 0 0 
	 91 10 1 0.8313173155931874 -2.037291114803007 -8.721055998107257 0 0 0 
	 92 10 2 0.795608891514158 -2.454574588928555 -7.857227652501774 0 0 0 
	 93 10 2 0.7599004674351286 -2.8718580630541033 -6.993399306896292 0 0 0 
	 95 10 2 0.9757912133898107 -1.0908293298175449 -8.791322508036126 0 0 0 
	 96 10 2 1.120265111186434 -0.14436754483208292 -8.861589017964995 0 0 0 
	 98 10 2 0.7225518418755936 -2.56646942566292 -9.51461783378387 0 0 0 
	 99 10 2 0.6137863681579999 -3.0956477365228334 -10.308179669460483 0 0 0 
	 94 10 4 0.7390705533890282 -3.1152734229606733 -6.489499438626427 0 0 0 
	 97 10 4 1.2045415515677977 0.407735163076103 -8.902577815423502 0 0 0 
	 100 10 4 0.5503398418227368 -3.4043350845244493 -10.771090740271841 0 0 0 
	 101 11 1 -1.200453244084046 7.908327848547573 7.705973691505311 0 0 0 
	 102 11 2 -0.7041022805108061 8.369456039664751 8.38611817050732 0 0 0 
	 103 11 2 -0.2077513169375662 8.83058423078193 9.06626264950933 0 0 0 
	 105 11 2 -1.7305882133502541 8.405157847849862 7.078505073840328 0 0 0 
	 106 11 2 -2.260723182616462 8.901987847152151 6.451036456175346 0 0 0 
	 108 11 2 -1.1666692383910782 6.950369658128107 7.653297830168284 0 0 0 
	 109 11 2 -1.13288523269811 5.9924114677086395 7.600621968831256 0 0 0 
	 104 11 3 0.08178674514682349 9.099575675600283 9.463013595593836 0 0 0 
	 107 11 3 -2.5699685813550834 9.191805346745154 6.085013095870773 0 0 0 
	 110 11 3 -1.113177896043879 5.433602523297284 7.569894383051324 0 0 0 
	 111 12 1 4.4340401093371575 5.088912675227993 -5.774581713017721 0 0 0 
	 112 12 2 3.540664006969795 5.06827668312375 -6.125371244715537 0 0 0 
	 113 12 2 2.647287904602432 5.047640691019506 -6.476160776413353 0 0 0 
	 115 12 2 4.665586617827086 5.718333805335994 -5.087693617779718 0 0 0 
	 116 12 2 4.897133126317013 6.347754935443994 -4.400805522541715 0 0 0 
	 118 12 2 5.095869703214593 4.480127537224236 -6.110680276557908 0 0 0 
	 119 12 2 5.757699297092027 3.87134239922048 -6.446778840098094 0 0 0 
	 114 12 4 2.126151844888137 5.035603028958698 -6.680788003237079 0 0 0 
	 117 12 4 5.032201922936138 6.714917261340327 -4.0001208003195465 0 0 0 
	 120 12 4 6.143766560187197 3.5162177353849553 -6.642836335496536 0 0 0 
	 121 13 1 4.812603222323342 7.670678017542896 -7.758708679529227 0 0 0 
	 122 13 2 4.915172981386492 7.42343027205696 -8.680634922174402 0 0 0 
	 123 13 2 5.017742740449641 7.176182526571023 -9.602561164819576 0 0 0 
	 125 13 2 4.052166302255135 7.361947429314989 -7.260691496603146 0 0 0 
	 126 13 2 3.2917293821869285 7.053216841087083 -6.7626743136770635 0 0 0 
	 128 13 2 5.470470383328399 8.226656351256738 -7.334799619810134 0 0 0 
	 129 13 2 6.128337544333456 8.782634684970581 -6.910890560091041 0 0 0 
	 124 13 3 5.077575099903146 7.031954675037561 -10.140351473029261 0 0 0 
	 127 13 3 2.848141178813808 6.873123997954137 -6.472164290303516 0 0 0 
	 130 13 3 6.5120933882530725 9.10695537963699 -6.663610275254904 0 0 0 
	 131 14 1 -9.119927276338275 -6.8367106384234555 -5.717571787842902 0 0 0 
	 132 14 2 -9.500549332064475 -7.7100699366827 -5.599375396870585 0 0 0 
	 133 14 2 -9.881171387790676 -8.583429234941946 -5.481179005898268 0 0 0 
	 135 14 2 -8.270286816893126 -6.738375518910575 -6.1535090470261755 0 0 0 
	 136 14 2 -7.4206463574479775 -6.640040399397696 -6.589446306209449 0 0 0 
	 138 14 2 -9.588945680057224 -6.061686459677091 -5.399830919631947 0 0 0 
	 139 14 2 -10.057964083776172 -5.2866622809307255 -5.082090051420991 0 0 0 
	 134 14 4 -10.103200920297626 -9.092888825593171 -5.412231111164416 0 0 0 
	 137 14 4 -6.925022756104974 -6.582678246348516 -6.843743040733025 0 0 0 
	 140 14 4 -10.331558152612226 -4.834564843328679 -4.896741211631268 0 0 0 
	 141 15 1 4.17235460156361 3.438623928921439 7.605446349496829 0 0 0 
	 142 15 2 3.6535523773897878 2.8343925471760025 8.141495497902362 0 0 0 
	 143 15 2 3.1347501532159656 2.230161165430566 8.677544646307894 0 0 0 
	 145 15 2 4.467813757664403 3.1724081014310976 6.731699807146108 0 0 0 
	 146 15 2 4.763272913765195 2.906192273940756 5.857953264795388 0 0 0 
	 148 15 2 4.39569766963664 4.309071138157217 7.943143743442018 0 0 0 
	 149 15 2 4.619040737709669 5.179518347392994 8.280841137387208 0 0 0 
	 144 15 3 2.8321155224479027 1.8776928594123947 8.990239982877787 0 0 0 
	 147 15 3 4.935624088157324 2.7508997079047237 5.3482677817574675 0 0 0 
	 150 15 3 4.749324194085603 5.687279219447198 8.477831283855235 0 0 0 
	 151 16 1 -6.94248701066711 4.12920909677506 1.3930032277292463 0 0 0 
	 152 16 2 -7.863281262188781 4.038365824878634 1.6489044710161784 0 0 0 
	 153 16 2 -8.784075513710452 3.947522552982206 1.9048057143031107 0 0 0 
	 155 16 2 -6.571609347048703 5.0006771623919555 1.2361811334985582 0 0 0 
	 156 16 2 -6.200731683430296 5.872145228008851 1.0793590392678698 0 0 0 
	 158 16 2 -6.392570422763846 3.3485843030545928 1.2939240786730024 0 0 0 
	 159 16 2 -5.842653834860582 2.5679595093341256 1.1948449296167585 0 0 0 
	 154 16 4 -9.32120549376476 3.894530644375957 2.054081439553821 0 0 0 
	 157 16 4 -5.984386379652891 6.3805015996187056 0.9878794842999684 0 0 0 
	 160 16 4 -5.521869158583678 2.1125950463305196 1.1370487593339498 0 0 0 
	 161 17 1 -1.2189587486032107 -2.2490251813126085 5.047085937472009 0 0 0 
	 162 17 2 -2.143908253347827 -2.4219858785643216 5.2372253886095645 0 0 0 
	 163 17 2 -3.0688577580924425 -2.5949465758160346 5.427364839747119 0 0 0 
	 165 17 2 -0.6184265252688508 -2.0144063069812033 5.7583629809259325 0 0 0 
	 166 17 2 -0.01789430193449082 -1.7797874326497976 6.469640024379856 0 0 0 
	 168 17 2 -0.8945414671929546 -2.3106833583923008 4.145669442880532 0 0 0 
	 169 17 2 -0.5701241857826984 -2.3723415354719934 3.244252948289054 0 0 0 
	 164 17 3 -3.6084116358601355 -2.6958403158795337 5.538279519577359 0 0 0 
	 167 17 3 0.332416161677219 -1.6429264226231444 6.884551633061311 0 0 0 
	 170 17 3 -0.38088077162671574 -2.4083088054351474 2.718426659777359 0 0 0 
	 171 18 1 -4.716704188468226 -4.543506607542234 -0.5724781744398513 0 0 0 
	 172 18 2 -4.219843980144515 -4.315800034334489 -1.3617054230207044 0 0 0 
	 173 18 2 -3.722983771820804 -4.088093461126744 -2.1509326716015584 0 0 0 
	 175 18 2 -4.512939715031283 -4.116538072182175 0.2628528432875229 0 0 0 
	 176 18 2 -4.309175241594341 -3.689569536822115 1.0981838610148973 0 0 0 
	 178 18 2 -5.417328870228879 -5.198181716110039 -0.6185819435863722 0 0 0 
	 179 18 2 -6.117953551989533 -5.852856824677843 -0.6646857127328933 0 0 0 
	 174 18 4 -3.433148650298639 -3.9552646267555587 -2.6113152332737224 0 0 0 
	 177 18 4 -4.190312632089459 -3.440504557862081 1.585460288022532 0 0 0 
	 180 18 4 -6.52665128301658 -6.234750638009062 -0.6915795780683633 0 0 0 
	 181 19 1 -8.973216942616325 -1.2955783662730624 7.07767453588834 0 0 0 
	 182 19 2 -8.084282845958109 -1.1920484819156816 7.425061546070627 0 0 0 
	 183 19 2 -7.195348749299892 -1.0885185975583007 7.772448556252915 0 0 0 
	 185 19 2 -9.170860384761161 -2.012534591644819 6.4706235984227725 0 0 0 
	 186 19 2 -9.368503826905997 -2.7294908170165755 5.863572660957205 0 0 0 
	 188 19 2 -9.664507597129706 -0.6821520252586872 7.33733846317162 0 0 0 
	 189 19 2 -10.355798251643087 -0.06872568424431202 7.5970023904549 0 0 0 
	 184 19 3 -6.6768038595826 -1.0281261650164952 7.975090978859248 0 0 0 
	 187 19 3 -9.483795834823816 -3.1477152818167666 5.5094596141022905 0 0 0 
	 190 19 3 -10.75905113344256 0.28910634801407387 7.74847301470348 0 0 0 
	 191 20 1 -2.009262630760155 -8.10996989455667 0.8226036784956163 0 0 0 
	 192 20 2 -1.1276717567129473 -8.174836290268606 1.197023071027604 0 0 0 
	 193 20 2 -0.2460808826657397 -8.239702685980543 1.5714424635595914 0 0 0 
	 195 20 2 -2.456249916320934 -8.899025674487119 0.5076539321782735 0 0 0 
	 196 20 2 -2.903237201881713 -9.688081454417567 0.19270418586093063 0 0 0 
	 198 20 2 -2.443866219246584 -7.256047718914285 0.7631340322809714 0 0 0 
	 199 20 2 -2.878469807733013 -6.402125543271901 0.7036643860663264 0 0 0 
	 194 20 4 0.2681804605284648 -8.277541416812507 1.7898537758699173 0 0 0 
	 197 20 4 -3.1639797851255005 -10.148363992710326 0.008983500509147424 0 0 0 
	 200 20 4 -3.1319885676834294 -5.9040042741471765 0.6689737591077838 0 0 0 
	 201 21 1 -1.0117225307203614 -5.706170578174514 -3.28973633050306 0 0 0 
	 202 21 2 -0.06855181633869445 -5.876604200613674 -3.2351342804038064 0 0 0 
	 203 21 2 0.8746188980429725 -6.047037823052834 -3.1805322303045522 0 0 0 
	 205 21 2 -1.3510729499017835 -5.0895963293502176 -3.9426356249491077 0 0 0 
	 206 21 2 -1.6904233690832056 -4.47302208052592 -4.595534919395156 0 0 0 
	 208 21 2 -1.6155428259206062 -6.152311204559649 -2.691439086156266 0 0 0 
	 209 21 2 -2.219363121120851 -6.598451830944786 -2.0931418418094725 0 0 0 
	 204 21 3 1.4248018147656116 -6.146457436142344 -3.148681034413321 0 0 0 
	 207 21 3 -1.8883777802723687 -4.1133537687117485 -4.97639284115535 0 0 0 
	 210 21 3 -2.5715916266543273 -6.8587005296694485 -1.7441351159405096 0 0 0 
	 211 22 1 8.147904212307562 5.585437922383585 5.980590663307094 0 0 0 
	 212 22 2 8.23761118908601 4.646579718879051 5.8014317058712175 0 0 0 
	 213 22 2 8.327318165864456 3.707721515374517 5.622272748435341 0 0 0 
	 215 22 2 7.951599875696406 6.19411185751941 5.264643285272979 0 0 0 
	 216 22 2 7.7552955390852505 6.802785792655234 4.548695907238864 0 0 0 
	 218 22 2 8.25450157214027 5.915622190752295 6.875696998777085 0 0 0 
	 219 22 2 8.361098931972979 6.245806459121004 7.770803334247075 0 0 0 
	 214 22 4 8.379647235651884 3.160054229996872 5.517763356597746 0 0 0 
	 217 22 4 7.640784676062076 7.157845588151132 4.131059936718964 0 0 0 
	 220 22 4 8.423280725208727 6.438413949002752 8.29294869660457 0 0 0 
	 221 23 1 -9.454759171948847 4.596197595114307 -2.9461675085759786 0 0 0 
	 222 23 2 -9.844593216198918 4.276751548831582 -2.129109590520001 0 0 0 
	 223 23 2 -10.234427260448989 3.9573055025488575 -1.3120516724640232 0 0 0 
	 225 23 2 -9.42186680957138 4.025641614322711 -3.717519545767927 0 0 0 
	 226 23 2 -9.388974447193913 3.4550856335311146 -4.4888715829598755 0 0 0 
	 228 23 2 -9.097817490076244 5.486199622188628 -2.9918733894400082 0 0 0 
	 229 23 2 -8.74087580820364 6.376201649262948 -3.0375792703040374 0 0 0 
	 224 23 3 -10.461830452928197 3.7709619755506014 -0.8354345535980365 0 0 0 
	 227 23 3 -9.369787235807056 3.122261311402684 -4.938826937988512 0 0 0 
	 230 23 3 -8.532659827111289 6.895369498389636 -3.064241034141388 0 0 0 
	 231 24 1 -1.6212034885144555 -0.758367102511833 -5.947693812190934 0 0 0 
	 232 24 2 -2.3389745405812095 -1.3878333707275474 -5.846813021187055 0 0 0 
	 233 24 2 -3.056745592647964 -2.0172996389432614 -5.7459322301831754 0 0 0 
	 235 24 2 -1.284294219024553 -0.28774440258502576 -5.1817914565049215 0 0 0 
	 236 24 2 -0.9473849495346511 0.1828782973417804 -4.415889100818909 0 0 0 
	 238 24 2 -1.2403417059376036 -0.5995235342229255 -6.814476958880825 0 0 0 
	 239 24 2 -0.8594799233607513 -0.4406799659340175 -7.681260105570717 0 0 0 
	 234 24 4 -3.4754453730202375 -2.3844882954024267 -5.68708510209758 0 0 0 
	 237 24 4 -0.7508545423322078 0.45740820563241824 -3.969112726668733 0 0 0 
	 240 24 4 -0.6373105501909212 -0.34802121776548756 -8.18688360780649 0 0 0 
	 241 25 1 4.345346939121201 8.721218878954359 -0.4653126217932497 0 0 0 
	 242 25 2 3.6367941857235686 8.578935447621394 0.1665959323668843 0 0 0 
	 243 25 2 2.928241432325936 8.43665201628843 0.7985044865270183 0 0 0 
	 245 25 2 4.8112454615214855 9.560396825498223 -0.4831715372041626 0 0 0 
	 246 25 2 5.2771439839217695 10.399574772042088 -0.5010304526150755 0 0 0 
	 248 25 2 4.588001170118551 8.024324363743458 -1.0793622605424709 0 0 0 
	 249 25 2 4.830655401115899 7.3274298485325575 -1.6934118992916918 0 0 0 
	 244 25 3 2.5149189928439832 8.353653348010868 1.1671178097870964 0 0 0 
	 247 25 3 5.548918121988602 10.889095240859342 -0.5114481532714412 0 0 0 
	 250 25 3 4.9722037025310195 6.9209080479928655 -2.051607521895404 0 0 0 
	 251 26 1 1.8233555995194048 -0.21871354486939254 -1.5442035931582136 0 0 0 
	 252 26 2 2.0922319449590896 -0.35588527466245146 -0.6328916666431599 0 0 0 
	 253 26 2 2.3611082903987746 -0.4930570044555104 0.2784202598718943 0 0 0 
	 255 26 2 1.6710883092893805 -0.9728200546941554 -2.118431809258677 0 0 0 
	 256 26 2 1.5188210190593558 -1.726926564518918 -2.69266002535914 0 0 0 
	 258 26 2 1.7067465443097447 0.6725646947484284 -1.8812873035728048 0 0 0 
	 259 26 2 1.5901374891000846 1.5638429343662499 -2.2183710139873956 0 0 0 
	 254 26 4 2.5179528252385905 -0.5730738468347946 0.8100188836723425 0 0 0 
	 257 26 4 1.4299984330918418 -2.1668220285833626 -3.027626484751077 0 0 0 
	 260 26 4 1.5221155402277828 2.0837552408099786 -2.4150031783959065 0 0 0 
	 261 27 1 -7.963482535459682 -4.310934406822186 3.7947945911054672 0 0 0 
	 262 27 2 -7.325583567654004 -4.368369280194275 4.509907269075294 0 0 0 
	 263 27 2 -6.687684599848322 -4.425804153566364 5.225019947045125 0 0 0 
	 265 27 2 -7.921148389284663 -4.930700110742768 3.0628804620497023 0 0 0 
	 266 27 2 -7.878814243109641 -5.550465814663348 2.330966332993938 0 0 0 
	 268 27 2 -8.643715649440384 -3.633733829529516 3.811596042191402 0 0 0 
	 269 27 2 -9.323948763421084 -2.956533252236846 3.828397493277337 0 0 0 
	 264 27 3 -6.315576868628344 -4.459307829700084 5.64216900919419 0 0 0 
	 267 27 3 -7.854119324507545 -5.9119958086170215 1.9040164243780766 0 0 0 
	 270 27 3 -9.720751413243159 -2.561499582149456 3.8381983397441326 0 0 0 
	 271 28 1 6.844472274576602 -1.0752421251207667 -3.7116960113569846 0 0 0 
	 272 28 2 6.0912905671934805 -0.48349924754092155 -3.7761761051609675 0 0 0 
	 273 28 2 5.33810885981036 0.10824363003892357 -3.8406561989649504 0 0 0 
	 275 28 2 7.729557456894381 -0.7166921109348614 -3.6133796476691855 0 0 0 
	 276 28 2 8.614642639212159 -0.35814209674895614 -3.5150632839813865 0 0 0 
	 278 28 2 6.712568799641945 -2.0255350168865167 -3.7455322812408003 0 0 0 
	 279 28 2 6.580665324707288 -2.975827908652267 -3.7793685511246164 0 0 0 
	 274 28 4 4.898752863836872 0.45342697529383313 -3.8782695870172734 0 0 0 
	 277 28 4 9.130942328897529 -0.14898792180717835 -3.4577120718301706 0 0 0 
	 280 28 4 6.503721630995405 -3.530165428848954 -3.7991063752235092 0 0 0 
	 281 29 1 3.1829959667999184 5.169783522694736 -0.3184883089197546 0 0 0 
	 282 29 2 3.019230042411892 4.248761133411104 -0.10285324579780328 0 0 0 
	 283 29 2 2.8554641180238676 3.3277387441274753 0.11278181732414862 0 0 0 
	 285 29 2 3.867301819638957 5.657176288281511 0.1460262676264621 0 0 0 
	 286 29 2 4.551607672477992 6.1445690538682864 0.6105408441726798 0 0 0 
	 288 29 2 2.6624560383489064 5.603413146391591 -0.998637948587925 0 0 0 
	 289 29 2 2.1419161098978954 6.037042770088443 -1.6787875882560928 0 0 0 
	 284 29 3 2.7599339954641846 2.7904756837120237 0.23856893747862057 0 0 0 
	 287 29 3 4.950786086634099 6.428881500460574 0.8815076804913067 0 0 0 
	 290 29 3 1.8382678183014716 6.289993383911611 -2.075541544729192 0 0 0 
	 291 30 1 1.9587803966967827 -5.588021174198604 3.2088473297640783 0 0 0 
	 292 30 2 2.6522117544340453 -5.518410330522039 2.5486145809933936 0 0 0 
	 293 30 2 3.345643112171306 -5.448799486845473 1.8883818322227082 0 0 0 
	 295 30 2 1.1249779628503207 -6.0087603951059 2.986694208466991 0 0 0 
	 296 30 2 0.29117552900386023 -6.429499616013198 2.764541087169904 0 0 0 
	 298 30 2 2.099151472805983 -5.236892796967873 4.0912331998318505 0 0 0 
	 299 30 2 2.2395225489151818 -4.885764419737143 4.973619069899623 0 0 0 
	 294 30 4 3.7501447375180423 -5.408193161367476 1.5032460621064754 0 0 0 
	 297 30 4 -0.19520922407324282 -6.67493082820912 2.6349517664132702 0 0 0 
	 300 30 4 2.321405676645549 -4.680939533019215 5.48834416077249 0 0 0 
	 301 31 1 4.904024911901821 -8.331441098159534 8.13882917510433 0 0 0 
	 302 31 2 5.162665941334215 -8.939004703219826 8.835658626046447 0 0 0 
	 303 31 2 5.421306970766609 -9.546568308280118 9.532488076988564 0 0 0 
	 305 31 2 5.420873939106773 -7.538847946462557 7.976769991593033 0 0 0 
	 306 31 2 5.937722966311725 -6.746254794765581 7.814710808081736 0 0 0 
	 308 31 2 4.128534855264476 -8.516470644796216 7.604058907673511 0 0 0 
	 309 31 2 3.353044798627131 -8.7015001914329 7.069288640242691 0 0 0 
	 304 31 3 5.572180904602171 -9.900980411231956 9.938971923371467 0 0 0 
	 307 31 3 6.23921823218128 -6.283908789609011 7.720176284366812 0 0 0 
	 310 31 3 2.900675598922013 -8.809434093637632 6.757339317574713 0 0 0 
	 311 32 1 -7.769556349158467 0.274063692606461 -0.658707460454718 0 0 0 
	 312 32 2 -7.411555196222464 -0.493825644717402 -1.1101287051041178 0 0 0 
	 313 32 2 -7.05355404328646 -1.2617149820412634 -1.561549949753518 0 0 0 
	 315 32 2 -7.842150075849662 0.2775676615587295 0.2985374784437155 0 0 0 
	 316 32 2 -7.9147438025408565 0.2810716305109975 1.2557824173421506 0 0 0 
	 318 32 2 -8.054963775403277 1.0384490609780517 -1.1645311547037513 0 0 0 
	 319 32 2 -8.340371201648084 1.8028344293496457 -1.670354848952785 0 0 0 
	 314 32 4 -6.844720037407123 -1.7096504288135155 -1.8248790091323337 0 0 0 
	 317 32 4 -7.957090143110721 0.2831156123998224 1.8141752983662356 0 0 0 
	 320 32 4 -8.506858866957554 2.248725894233073 -1.965418670598054 0 0 0 
	 321 33 1 8.153901168242543 -2.9447541662401697 8.109800588401637 0 0 0 
	 322 33 2 9.063366884936576 -2.6378682088744494 8.092679860323262 0 0 0 
	 323 33 2 9.972832601630609 -2.330982251508729 8.075559132244887 0 0 0 
	 325 33 2 7.6194046265269995 -2.906730186742511 7.3132658284085235 0 0 0 
	 326 33 2 7.084908084811456 -2.8687062072448515 6.516731068415411 0 0 0 
	 328 33 2 7.778931993264053 -3.289664103103549 8.923456076473125 0 0 0 
	 329 33 2 7.403962818285564 -3.6345740399669286 9.73711156454461 0 0 0 
	 324 33 3 10.503354269702129 -2.151965443045392 8.065572040865835 0 0 0 
	 327 33 3 6.7731184354773895 -2.8465255525378836 6.052085791752763 0 0 0 
	 330 33 3 7.185230799548111 -3.8357715031372335 10.211743932586312 0 0 0 
	 331 34 1 0.8468379102903889 1.021806590479776 1.1123936658804632 0 0 0 
	 332 34 2 1.7463374534706961 1.211296777501538 1.389149950074473 0 0 0 
	 333 34 2 2.645836996651004 1.4007869645232998 1.665906234268483 0 0 0 
	 335 34 2 0.27554972271183853 1.7342618560165408 0.8163576860703186 0 0 0 
	 336 34 2 -0.29573846486671185 2.446717121553306 0.5203217062601739 0 0 0 
	 338 34 2 0.5186265546886317 0.11986113792124914 1.1316733614965977 0 0 0 
	 339 34 2 0.19041519908687476 -0.7820843146372775 1.1509530571127322 0 0 0 
	 334 34 4 3.170545063506183 1.5113229069526612 1.8273474000483216 0 0 0 
	 337 34 4 -0.6289899076208656 2.8623160264497516 0.34763405137092335 0 0 0 
	 340 34 4 -0.0010414250141502768 -1.308219161963085 1.162199546222144 0 0 0 
	 341 35 1 -5.5864887546018815 -5.566539639273019 -3.8098153014169513 0 0 0 
	 342 35 2 -5.664619451566747 -4.765573116136723 -3.2864146680520916 0 0 0 
	 343 35 2 -5.742750148531612 -3.9646065930004246 -2.7630140346872327 0 0 0 
	 345 35 2 -6.375986372764212 -6.029287381543001 -4.099915349572834 0 0 0 
	 346 35 2 -7.165483990926542 -6.492035123812977 -4.39001539772872 0 0 0 
	 348 35 2 -4.718860439474689 -5.904758420139334 -4.043115886625927 0 0 0 
	 349 35 2 -3.8512321243474954 -6.242977201005656 -4.276416471834901 0 0 0 
	 344 35 3 -5.788326388427781 -3.4973761211709165 -2.45769699855773 0 0 0 
	 347 35 3 -7.6260242681879 -6.761971306803797 -4.559240425819652 0 0 0 
	 350 35 3 -3.3451156071899675 -6.44027148984434 -4.4125084798734715 0 0 0 
	 351 36 1 5.806880384768271 -7.201743144383228 -2.073079244091577 0 0 0 
	 352 36 2 5.72662646480779 -6.319034094052098 -1.7043191041706631 0 0 0 
	 353 36 2 5.646372544847308 -5.436325043720968 -1.3355589642497492 0 0 0 
	 355 36 2 5.079457075648825 -7.823135950582872 -1.99354114156804 0 0 0 
	 356 36 2 4.352033766529377 -8.444528756782518 -1.914003039044503 0 0 0 
	 358 36 2 6.6145576138481985 -7.463059388514712 -2.521377486536028 0 0 0 
	 359 36 2 7.422234842928127 -7.724375632646198 -2.9696757289804787 0 0 0 
	 354 36 4 5.599557758203694 -4.92141143102781 -1.1204488826292156 0 0 0 
	 357 36 4 3.927703502876367 -8.80700789373231 -1.8676058125724397 0 0 0 
	 360 36 4 7.893379893224751 -7.876810108389564 -3.231183037073075 0 0 0 
	 361 37 1 3.343313595112928 1.64530529284844 -8.918117664217919 0 0 0 
	 362 37 2 3.4605913241472734 0.7952117242604259 -9.348451091827071 0 0 0 
	 363 37 2 3.5778690531816193 -0.05488184432758825 -9.778784519436224 0 0 0 
	 365 37 2 2.767051137989415 2.3059321519443277 -9.309389607437815 0 0 0 
	 366 37 2 2.190788680865902 2.966559011040215 -9.700661550657712 0 0 0 
	 368 37 2 3.8022983232020953 1.8347720023405667 -8.09651229338887 0 0 0 
	 369 37 2 4.2612830512912625 2.0242387118326937 -7.27490692255982 0 0 0 
	 364 37 3 3.646281061784987 -0.5507697593372634 -10.02981235220823 0 0 0 
	 367 37 3 1.8546355808771864 3.3519246788461494 -9.928903517535984 0 0 0 
	 370 37 3 4.52902414267661 2.1347609590364334 -6.795637122909541 0 0 0 
	 371 38 1 -1.8036737492698425 4.896152928844297 -4.400234500152809 0 0 0 
	 372 38 2 -1.9186971237509636 4.414961373058642 -5.2229278269542085 0 0 0 
	 373 38 2 -2.0337204982320847 3.9337698172729842 -6.04562115375561 0 0 0 
	 375 38 2 -0.9481651721150937 4.904759050310875 -3.9647680731025035 0 0 0 
	 376 38 2 -0.09265659496034423 4.913365171777452 -3.5293016460521995 0 0 0 
	 378 38 2 -2.54415895194347 5.368738363163375 -4.013007600401715 0 0 0 
	 379 38 2 -3.284644154617099 5.8413237974824535 -3.62578070065062 0 0 0 
	 374 38 4 -2.1008174666794046 3.653074743064685 -6.5255255943897605 0 0 0 
	 377 38 4 0.4063900750465932 4.918385409299623 -3.275279563606188 0 0 0 
	 380 38 4 -3.7165938561767144 6.1169986341685805 -3.3998983424624813 0 0 0 
	 381 39 1 0.5243951626517434 5.2092071154355235 6.088616138533435 0 0 0 
	 382 39 2 0.7991892333883341 5.826574612936385 5.406746948939464 0 0 0 
	 383 39 2 1.073983304124926 6.443942110437245 4.724877759345495 0 0 0 
	 385 39 2 -0.199548672848455 4.601116970027133 5.922087768282407 0 0 0 
	 386 39 2 -0.9234925083486532 3.9930268246187426 5.7555593980313775 0 0 0 
	 388 39 2 0.9735449274153498 5.199929763343055 6.937013698378438 0 0 0 
	 389 39 2 1.4226946921789574 5.190652411250581 7.785411258223432 0 0 0 
	 384 39 3 1.2342798453879371 6.804073150646083 4.3271207320823475 0 0 0 
	 387 39 3 -1.3457930790571035 3.6383075731305157 5.658417848718278 0 0 0 
	 390 39 3 1.6846987216243954 5.185240622529972 8.28030983479968 0 0 0 
	 391 40 1 -9.461501431644265 -0.3509470969669104 -3.481989901820156 0 0 0 
	 392 40 2 -9.898946159156226 0.15377690803084643 -2.7924278747689186 0 0 0 
	 393 40 2 -10.336390886668186 0.6585009130286033 -2.102865847717682 0 0 0 
	 395 40 2 -8.586627503261772 -0.7151936470990105 -3.328627389603354 0 0 0 
	 396 40 2 -7.71175357487928 -1.0794401972311105 -3.1752648773865526 0 0 0 
	 398 40 2 -9.898930632514798 -0.4914245518325674 -4.324914441088194 0 0 0 
	 399 40 2 -10.336359833385329 -0.6319020066982244 -5.167838980356233 0 0 0 
	 394 40 4 -10.59156697771683 0.952923249277295 -1.7006213319377932 0 0 0 
	 397 40 4 -7.201410449989494 -1.2919173514748354 -3.0858034119267517 0 0 0 