LAMMPS FENE chain data file 

7000  atoms          
6300  bonds          
6300  angles         
0  dihedrals      
0  impropers    

4  atom types     
2  bond types     
2  angle types    
0  dihedral types 
0  improper types 

-20.000000 20.000000 xlo xhi  
-20.000000 20.000000 ylo yhi  
-20.000000 20.000000 zlo zhi  

Masses

	 1 1.0 
	 2 1.0 
	 3 1.0 
	 4 1.0 

Atoms 

	 1 1 1 5.941506095376448 -10.261955697192011 -17.65107057498612 0 0 0 
	 2 1 2 6.835448887028359 -10.609448819303726 -17.69248090387445 0 0 0 
	 3 1 2 7.729391678680271 -10.956941941415442 -17.733891232762783 0 0 0 
	 5 1 2 5.649644852378755 -9.779285887617363 -16.87425214719169 0 0 0 
	 6 1 2 5.357783609381061 -9.296616078042714 -16.09743371939726 0 0 0 
	 8 1 2 5.339424546722229 -10.397132384654945 -18.386478673892224 0 0 0 
	 9 1 2 4.737342998068011 -10.53230907211788 -19.121886772798323 0 0 0 
	 4 1 3 8.250858307143886 -11.159646262647275 -17.75804725794764 0 0 0 
	 7 1 3 5.187531217632407 -9.015058689124167 -15.644289636517172 0 0 0 
	 10 1 3 4.386128761353051 -10.61116213980459 -19.55087483049355 0 0 0 
	 11 2 1 -15.107495639917211 -18.737019371225973 4.112160065465664 0 0 0 
	 12 2 2 -15.322974229615166 -18.994970966040658 3.212921525302743 0 0 0 
	 13 2 2 -15.538452819313122 -19.25292256085534 2.313682985139822 0 0 0 
	 15 2 2 -14.302382795097838 -19.059094902808745 4.524058911133543 0 0 0 
	 16 2 2 -13.497269950278465 -19.381170434391517 4.935957756801422 0 0 0 
	 18 2 2 -15.697129895038628 -18.15699224482852 4.599499759960707 0 0 0 
	 19 2 2 -16.286764150160046 -17.576965118431062 5.086839454455749 0 0 0 
	 14 2 4 -15.664148663303594 -19.40339432449724 1.789127170044785 0 0 0 
	 17 2 4 -13.027620790800498 -19.5690478278148 5.176232083441017 0 0 0 
	 20 2 4 -16.63071746564754 -17.23861596136588 5.37112094291119 0 0 0 
	 21 3 1 14.86595586795163 -4.454442780528369 6.634812062854758 0 0 0 
	 22 3 2 14.74243926459853 -4.2927544326260385 7.57300208990084 0 0 0 
	 23 3 2 14.618922661245433 -4.131066084723708 8.511192116946923 0 0 0 
	 25 3 2 14.106234575946983 -4.48362132119718 6.048661765371912 0 0 0 
	 26 3 2 13.346513283942336 -4.512799861865992 5.462511467889065 0 0 0 
	 28 3 2 15.749193763309375 -4.586952587761888 6.282772333291522 0 0 0 
	 29 3 2 16.63243165866712 -4.719462394995408 5.930732603728286 0 0 0 
	 24 3 3 14.54687130928946 -4.0367478817806814 9.058469632723803 0 0 0 
	 27 3 3 12.90334253027296 -4.529820677256132 5.120590461024072 0 0 0 
	 30 3 3 17.14765376429247 -4.796759782548294 5.725376094816398 0 0 0 
	 31 4 1 -13.489510900150075 0.3204460621884442 -14.20403914676223 0 0 0 
	 32 4 2 -12.989621694788829 -0.41198531437712316 -13.836268755097038 0 0 0 
	 33 4 2 -12.489732489427583 -1.1444166909426905 -13.468498363431843 0 0 0 
	 35 4 2 -13.100554340792842 0.8724069275698394 -14.886426132292 0 0 0 
	 36 4 2 -12.711597781435609 1.4243677929512346 -15.568813117821769 0 0 0 
	 38 4 2 -14.378356664868553 0.5009165733726166 -13.889422552897656 0 0 0 
	 39 4 2 -15.26720242958703 0.681387084556789 -13.574805959033082 0 0 0 
	 34 4 4 -12.198130452966856 -1.5716683272726044 -13.25396563496048 0 0 0 
	 37 4 4 -12.48470645514389 1.7463449644237148 -15.966872192714133 0 0 0 
	 40 4 4 -15.785695792339476 0.7866615494142226 -13.39127961261208 0 0 0 
	 41 5 1 -3.8082062814958118 9.418173684923513 12.52831809597797 0 0 0 
	 42 5 2 -3.4548235340952527 9.783185968722078 11.713771187251536 0 0 0 
	 43 5 2 -3.101440786694694 10.148198252520645 10.899224278525104 0 0 0 
	 45 5 2 -4.470942508453411 9.904308962375065 13.024355579939723 0 0 0 
	 46 5 2 -5.133678735411011 10.39044423982662 13.520393063901476 0 0 0 
	 48 5 2 -3.4988528019387712 8.567026123673394 12.846827520742648 0 0 0 
	 49 5 2 -3.189499322381731 7.715878562423276 13.16533694550733 0 0 0 
	 44 5 3 -2.8953008507110347 10.361122084736474 10.42407191510135 0 0 0 
	 47 5 3 -5.520274867802943 10.674023151673358 13.809748262879165 0 0 0 
	 50 5 3 -3.0090431259734576 7.219375818360707 13.351134109953392 0 0 0 
	 51 6 1 -0.1575736208467271 -0.22302719213126654 2.660252043109219 0 0 0 
	 52 6 2 0.34829502531084366 -0.9342689677206659 3.06004204985169 0 0 0 
	 53 6 2 0.8541636714684144 -1.6455107433100653 3.459832056594161 0 0 0 
	 55 6 2 0.13599483324921913 0.6861928113645424 2.7537215461719686 0 0 0 
	 56 6 2 0.42956328734516536 1.5954128148603512 2.847191049234718 0 0 0 
	 58 6 2 -0.9570107211002439 -0.42100542003767577 2.1669925333039988 0 0 0 
	 59 6 2 -1.7564478213537607 -0.618983647944085 1.6737330234987788 0 0 0 
	 54 6 4 1.1492537150603308 -2.0604017790705482 3.6930428938606017 0 0 0 
	 57 6 4 0.6008115522344674 2.1257911502329065 2.901714926021322 0 0 0 
	 60 6 4 -2.222786129834979 -0.7344709475561573 1.3859983094457338 0 0 0 
	 61 7 1 13.719053133406396 -12.440056784873498 10.399643323684082 0 0 0 
	 62 7 2 13.538035228948516 -13.382398763250707 10.370935936937709 0 0 0 
	 63 7 2 13.357017324490638 -14.324740741627917 10.342228550191335 0 0 0 
	 65 7 2 13.603496086680346 -11.90484263223091 9.61110519539666 0 0 0 
	 66 7 2 13.487939039954298 -11.369628479588322 8.82256706710924 0 0 0 
	 68 7 2 14.015628084590324 -12.032928959138877 11.216888838717875 0 0 0 
	 69 7 2 14.312203035774251 -11.625801133404257 12.03413435375167 0 0 0 
	 64 7 3 13.251423546890209 -14.87444022901462 10.325482574589284 0 0 0 
	 67 7 3 13.420530762697437 -11.057420223880143 8.362586492274911 0 0 0 
	 70 7 3 14.485205090631544 -11.388309901725728 12.51086090418805 0 0 0 
	 71 8 1 7.306260579322643 -13.155539648145119 5.45813143221396 0 0 0 
	 72 8 2 8.078469705923798 -13.673106556069566 5.2185118157060275 0 0 0 
	 73 8 2 8.850678832524954 -14.190673463994012 4.9788921991980954 0 0 0 
	 75 8 2 7.324168939455098 -12.199424814075357 5.373729330882783 0 0 0 
	 76 8 2 7.342077299587553 -11.243309980005595 5.289327229551606 0 0 0 
	 78 8 2 6.516143092589033 -13.594087574290434 5.782153150053068 0 0 0 
	 79 8 2 5.726025605855423 -14.032635500435749 6.106174867892176 0 0 0 
	 74 8 4 9.301134156375628 -14.492587493616606 4.839114089568469 0 0 0 
	 77 8 4 7.352523842998151 -10.685576326798234 5.240092670441754 0 0 0 
	 80 8 4 5.265123738594151 -14.288455124020517 6.295187536631657 0 0 0 
	 81 9 1 5.9447625886514155 9.638182238339583 1.0130969601811923 0 0 0 
	 82 9 2 6.444084955489509 8.865866668291801 1.2884255533875175 0 0 0 
	 83 9 2 6.9434073223276025 8.09355109824402 1.5637541465938427 0 0 0 
	 85 9 2 5.774292170505335 9.79233075818665 0.08101430807030874 0 0 0 
	 86 9 2 5.603821752359254 9.946479278033717 -0.8510683440405749 0 0 0 
	 88 9 2 5.615910639959402 10.256349288540298 1.6698510190857503 0 0 0 
	 89 9 2 5.287058691267389 10.874516338741014 2.3266050779903082 0 0 0 
	 84 9 3 7.234678702983157 7.643033682382814 1.7243624926308658 0 0 0 
	 87 9 3 5.504380675107375 10.036399247944505 -1.3947832244385903 0 0 0 
	 90 9 3 5.095228387863716 11.23511378469143 2.7097116123513008 0 0 0 
	 91 10 1 -0.21891533776120298 12.831977047776286 12.203011581471582 0 0 0 
	 92 10 2 -1.174935999318754 12.744794971278585 12.198135085535846 0 0 0 
	 93 10 2 -2.130956660876305 12.657612894780884 12.19325858960011 0 0 0 
	 95 10 2 0.3195834910876546 12.242196929181793 11.670303009136694 0 0 0 
	 96 10 2 0.8580823199365122 11.652416810587301 11.137594436801805 0 0 0 
	 98 10 2 0.19860649494749066 13.50893924286848 12.740596649742207 0 0 0 
	 99 10 2 0.6161283276561843 14.185901437960673 13.278181718012831 0 0 0 
	 94 10 4 -2.6886353801182103 12.606756683490557 12.19041396697093 0 0 0 
	 97 10 4 1.1722066367650124 11.308378408073846 10.826847769606454 0 0 0 
	 100 10 4 0.8596827300695891 14.580796051764453 13.591773007837363 0 0 0 
	 101 11 1 -12.14511518149016 10.839283923462922 13.826847231931389 0 0 0 
	 102 11 2 -12.743152911868794 10.363389924211633 14.407773883515034 0 0 0 
	 103 11 2 -13.34119064224743 9.887495924960344 14.98870053509868 0 0 0 
	 105 11 2 -12.068336100673873 10.584966159626122 12.90433574270968 0 0 0 
	 106 11 2 -11.991557019857586 10.330648395789321 11.981824253487972 0 0 0 
	 108 11 2 -11.623856531927814 11.569495686551011 14.168432069569452 0 0 0 
	 109 11 2 -11.102597882365467 12.2997074496391 14.510016907207515 0 0 0 
	 104 11 3 -13.6900459849683 9.609891092063759 15.327574415189138 0 0 0 
	 107 11 3 -11.946769222714751 10.18229636688452 11.443692551441973 0 0 0 
	 110 11 3 -10.798530336787431 12.725664311440486 14.709274729163052 0 0 0 
	 111 12 1 3.3533426504515473 -6.627068443734965 15.820869464055303 0 0 0 
	 112 12 2 3.8083152683481556 -6.618954596829555 14.975568285508448 0 0 0 
	 113 12 2 4.263287886244764 -6.610840749924146 14.130267106961593 0 0 0 
	 115 12 2 3.850549180349096 -6.517018382291061 16.63467205105256 0 0 0 
	 116 12 2 4.347755710246645 -6.406968320847158 17.44847463804982 0 0 0 
	 118 12 2 2.4011635026573908 -6.745232352084278 15.852368055604899 0 0 0 
	 119 12 2 1.4489843548632337 -6.86339626043359 15.883866647154496 0 0 0 
	 114 12 4 4.528688580017786 -6.606107672562657 13.63717475280926 0 0 0 
	 117 12 4 4.637792852686882 -6.342772451671547 17.92319281379822 0 0 0 
	 120 12 4 0.893546518649976 -6.932325206970689 15.902240825558428 0 0 0 
	 121 13 1 9.91900850644262 -0.50381970304056 -3.709821313880459 0 0 0 
	 122 13 2 10.842414135158792 -0.7655105011531267 -3.6888458272711633 0 0 0 
	 123 13 2 11.765819763874966 -1.0272012992656934 -3.6678703406618673 0 0 0 
	 125 13 2 9.665020319554717 0.3823006072244025 -3.4417153709076813 0 0 0 
	 126 13 2 9.411032132666813 1.268420917489365 -3.1736094279349034 0 0 0 
	 128 13 2 9.249591064614348 -1.1282492151929555 -3.9989027434625326 0 0 0 
	 129 13 2 8.580173622786079 -1.752678727345351 -4.287984173044606 0 0 0 
	 124 13 3 12.304473047292733 -1.1798542648313572 -3.655634640139778 0 0 0 
	 127 13 3 9.262872356982204 1.7853244318105927 -3.0172142945341163 0 0 0 
	 130 13 3 8.189680115052921 -2.116929276100915 -4.456615006967483 0 0 0 
	 131 14 1 -10.211830798755459 -7.5497538076555815 3.7142105088767963 0 0 0 
	 132 14 2 -9.569800151282891 -7.637756371629256 4.422484605847745 0 0 0 
	 133 14 2 -8.927769503810321 -7.725758935602931 5.130758702818694 0 0 0 
	 135 14 2 -10.954211919965564 -6.948871888203177 3.8112217955707783 0 0 0 
	 136 14 2 -11.69659304117567 -6.347989968750772 3.908233082264761 0 0 0 
	 138 14 2 -10.111480325017924 -8.062633163134311 2.9089251252118653 0 0 0 
	 139 14 2 -10.011129851280389 -8.57551251861304 2.1036397415469343 0 0 0 
	 134 14 4 -8.553251626117989 -7.777093764587574 5.5439185927184145 0 0 0 
	 137 14 4 -12.129648695214897 -5.99747551573687 3.9648229995029167 0 0 0 
	 140 14 4 -9.952592074933493 -8.8746921426423 1.6338899344090576 0 0 0 
	 141 15 1 4.358781116384809 -12.333156661999624 -6.343554183630862 0 0 0 
	 142 15 2 5.203742142050148 -12.164606584791736 -5.920196490208627 0 0 0 
	 143 15 2 6.048703167715486 -11.99605650758385 -5.496838796786393 0 0 0 
	 145 15 2 3.8835644517915084 -13.146751408508536 -6.159617482165606 0 0 0 
	 146 15 2 3.4083477871982075 -13.960346155017447 -5.97568078070035 0 0 0 
	 148 15 2 3.989036755312771 -11.6881119926986 -6.950848578518352 0 0 0 
	 149 15 2 3.619292394240733 -11.043067323397576 -7.558142973405841 0 0 0 
	 144 15 3 6.5415970993536 -11.897735629212582 -5.249880142290089 0 0 0 
	 147 15 3 3.131138066185449 -14.434943090480978 -5.868384371512285 0 0 0 
	 150 15 3 3.4036081836153778 -10.666791266305312 -7.912398037090211 0 0 0 
	 151 16 1 -10.33066374461212 -8.361685006846074 9.597983414024341 0 0 0 
	 152 16 2 -10.43935931932429 -8.152726645777008 10.528639996968513 0 0 0 
	 153 16 2 -10.548054894036458 -7.943768284707942 11.459296579912685 0 0 0 
	 155 16 2 -9.88754250088606 -7.740729739737935 9.015181458288664 0 0 0 
	 156 16 2 -9.44442125716 -7.119774472629796 8.432379502552987 0 0 0 
	 158 16 2 -10.665089413626012 -9.191598635023277 9.250128786815846 0 0 0 
	 159 16 2 -10.999515082639904 -10.021512263200481 8.902274159607352 0 0 0 
	 154 16 4 -10.61146064595189 -7.821875907417653 12.002179586630117 0 0 0 
	 157 16 4 -9.185933864986465 -6.757550566816716 8.092411695040509 0 0 0 
	 160 16 4 -11.194596722898007 -10.50562854630385 8.699358960402396 0 0 0 
	 161 17 1 15.6684861656725 -0.9513050093196629 -11.642371153054917 0 0 0 
	 162 17 2 15.287464871630206 -1.5424272220707416 -10.988920846544463 0 0 0 
	 163 17 2 14.906443577587913 -2.1335494348218202 -10.335470540034011 0 0 0 
	 165 17 2 15.102389815439867 -0.3560224895381513 -12.139134319861663 0 0 0 
	 166 17 2 14.536293465207235 0.2392600302433603 -12.635897486668409 0 0 0 
	 168 17 2 16.615603809947423 -0.9554653163500957 -11.799058292758623 0 0 0 
	 169 17 2 17.56272145422235 -0.9596256233805284 -11.955745432462331 0 0 0 
	 164 17 3 14.684181156063243 -2.4783707255932828 -9.95429119456958 0 0 0 
	 167 17 3 14.206070594238199 0.5865081667825756 -12.925676000639012 0 0 0 
	 170 17 3 18.115206746716055 -0.962052469148281 -12.04714626395616 0 0 0 
	 171 18 1 -10.852970959849007 6.225921727901822 -10.345329975808934 0 0 0 
	 172 18 2 -11.779391193253673 6.13011482427542 -10.112592809984555 0 0 0 
	 173 18 2 -12.70581142665834 6.034307920649018 -9.879855644160177 0 0 0 
	 175 18 2 -10.347846133760852 6.969540542966473 -10.008462096735764 0 0 0 
	 176 18 2 -9.842721307672695 7.713159358031124 -9.671594217662596 0 0 0 
	 178 18 2 -10.431675552532495 5.578109816463574 -10.914935020706482 0 0 0 
	 179 18 2 -10.010380145215985 4.930297905025324 -11.484540065604028 0 0 0 
	 174 18 4 -13.246223229477728 5.978420560200284 -9.744092297429289 0 0 0 
	 177 18 4 -9.548065159121272 8.14693700015217 -9.475087954869913 0 0 0 
	 180 18 4 -9.76462449094802 4.552407623353012 -11.816809675127598 0 0 0 
	 181 19 1 2.440797278460902 -10.265732861960828 -2.1586288892753025 0 0 0 
	 182 19 2 1.5378731294974948 -9.998459886732807 -2.3454259393897745 0 0 0 
	 183 19 2 0.6349489805340875 -9.731186911504787 -2.532222989504247 0 0 0 
	 185 19 2 2.8107336094773228 -11.040389655967477 -2.588342703916453 0 0 0 
	 186 19 2 3.1806699404937433 -11.815046449974126 -3.0180565185576036 0 0 0 
	 188 19 2 2.973785096407889 -9.7583490431822 -1.54211802451968 0 0 0 
	 189 19 2 3.506772914354876 -9.250965224403572 -0.9256071597640574 0 0 0 
	 184 19 3 0.10824322697209965 -9.575277675955109 -2.6411879354043553 0 0 0 
	 187 19 3 3.3964661335866557 -12.266929579811338 -3.2687229104316082 0 0 0 
	 190 19 3 3.8176824748239513 -8.954991330116037 -0.5659758219899442 0 0 0 
	 191 20 1 2.1661259583043035 14.908847766732833 -16.53950261001573 0 0 0 
	 192 20 2 1.734220341639839 14.258181486281746 -15.9812097390442 0 0 0 
	 193 20 2 1.3023147249753744 13.607515205830659 -15.422916868072669 0 0 0 
	 195 20 2 2.251337336700576 15.817088082625913 -16.24043982467084 0 0 0 
	 196 20 2 2.336548715096848 16.725328398518993 -15.941377039325946 0 0 0 
	 198 20 2 2.5128201965724957 14.651273731290841 -17.396858266332153 0 0 0 
	 199 20 2 2.8595144348406882 14.393699695848849 -18.254213922648578 0 0 0 
	 194 20 4 1.050369781921103 13.227959875567525 -15.09724602667261 0 0 0 
	 197 20 4 2.3862553524946732 17.25513524945662 -15.76692374787476 0 0 0 
	 200 20 4 3.0617527404971336 14.243448175174354 -18.754338055499826 0 0 0 
	 201 21 1 -12.03269235883949 -2.462096524056836 -1.7048046003877548 0 0 0 
	 202 21 2 -12.968008080730465 -2.3094689751640693 -1.8580668974557235 0 0 0 
	 203 21 2 -13.90332380262144 -2.156841426271303 -2.011329194523692 0 0 0 
	 205 21 2 -11.752264724752099 -3.0915860911559836 -1.0364459938347494 0 0 0 
	 206 21 2 -11.471837090664705 -3.721075658255131 -0.36808738728174406 0 0 0 
	 208 21 2 -11.377804271035908 -1.9852345058504552 -2.2199009098727913 0 0 0 
	 209 21 2 -10.722916183232325 -1.5083724876440745 -2.734997219357828 0 0 0 
	 204 21 3 -14.448924640391176 -2.0678086894171894 -2.100732201146674 0 0 0 
	 207 21 3 -11.308254304113726 -4.088277905729633 0.02178846654084232 0 0 0 
	 210 21 3 -10.340898132013569 -1.2302029770236858 -3.0354700665574326 0 0 0 
	 211 22 1 -14.733988900911532 -2.583381182174649 -13.518516949505548 0 0 0 
	 212 22 2 -15.570286240614598 -3.0451187703244993 -13.423621431723445 0 0 0 
	 213 22 2 -16.406583580317665 -3.50685635847435 -13.328725913941343 0 0 0 
	 215 22 2 -14.495145728898049 -2.1912746843946955 -14.361610321310401 0 0 0 
	 216 22 2 -14.256302556884563 -1.7991681866147422 -15.204703693115254 0 0 0 
	 218 22 2 -14.13653473322195 -2.5137500918047513 -12.770319095482797 0 0 0 
	 219 22 2 -13.53908056553237 -2.444119001434854 -12.022121241460049 0 0 0 
	 214 22 4 -16.894423695144454 -3.776203284895096 -13.273370195235115 0 0 0 
	 217 22 4 -14.11697737321003 -1.5704393962431027 -15.696508160001418 0 0 0 
	 220 22 4 -13.190565634380112 -2.4035008653857473 -11.58567249328011 0 0 0 
	 221 23 1 8.233325188585091 -8.964775598210068 11.433561620322537 0 0 0 
	 222 23 2 7.307911151656706 -8.760164546234506 11.280776877414883 0 0 0 
	 223 23 2 6.382497114728318 -8.555553494258941 11.127992134507226 0 0 0 
	 225 23 2 8.901108341123098 -8.285424927826847 11.314614876624912 0 0 0 
	 226 23 2 9.568891493661104 -7.606074257443626 11.195668132927285 0 0 0 
	 228 23 2 8.490956072975473 -9.848737320568853 11.705293106927824 0 0 0 
	 229 23 2 8.748586957365855 -10.73269904292764 11.977024593533107 0 0 0 
	 224 23 3 5.842672259853425 -8.436197047273192 11.038867701144426 0 0 0 
	 227 23 3 9.958431665974938 -7.209786366386745 11.126282532437 0 0 0 
	 230 23 3 8.898871639926911 -11.248343380970269 12.135534627386193 0 0 0 
	 231 24 1 -13.050200071827955 15.399710153285625 11.450561985495003 0 0 0 
	 232 24 2 -12.498612812222857 16.176873782919436 11.566182865165311 0 0 0 
	 233 24 2 -11.94702555261776 16.95403741255325 11.68180374483562 0 0 0 
	 235 24 2 -13.053963603379124 14.71009825667068 12.118410222654765 0 0 0 
	 236 24 2 -13.057727134930294 14.020486360055735 12.786258459814526 0 0 0 
	 238 24 2 -13.598023799881885 15.312158420266758 10.667092868664934 0 0 0 
	 239 24 2 -14.145847527935812 15.22460668724789 9.883623751834866 0 0 0 
	 234 24 4 -11.62526631784812 17.407382863172973 11.749249257976631 0 0 0 
	 237 24 4 -13.059922528335143 13.618212753697016 13.17583659815772 0 0 0 
	 240 24 4 -14.465411369300604 15.173534842986884 9.42660010035066 0 0 0 
	 241 25 1 7.41220293373047 -4.9605223014617605 11.874239399460622 0 0 0 
	 242 25 2 7.436136175486838 -4.358813955657737 11.126593583228887 0 0 0 
	 243 25 2 7.460069417243205 -3.757105609853715 10.378947766997152 0 0 0 
	 245 25 2 7.5750770736416 -5.897298412351517 11.741866696026444 0 0 0 
	 246 25 2 7.737951213552729 -6.834074523241273 11.609493992592265 0 0 0 
	 248 25 2 7.225395552062972 -4.6254545363760275 12.754257919126536 0 0 0 
	 249 25 2 7.0385881703954745 -4.2903867712902946 13.63427643879245 0 0 0 
	 244 25 3 7.47403047493442 -3.406109074801368 9.942821040861974 0 0 0 
	 247 25 3 7.832961128500888 -7.3805272545936305 11.532276582255662 0 0 0 
	 250 25 3 6.929617197756101 -4.094930574990284 14.14762057526423 0 0 0 
	 251 26 1 -0.03888984535378004 -6.573992568779827 -4.310108301561701 0 0 0 
	 252 26 2 -0.5981178821060746 -7.342714807908404 -4.176204896155711 0 0 0 
	 253 26 2 -1.1573459188583692 -8.111437047036981 -4.042301490749721 0 0 0 
	 255 26 2 0.8478760108536635 -6.555678170462312 -3.9428061111531134 0 0 0 
	 256 26 2 1.734641867061107 -6.537363772144797 -3.575503920744525 0 0 0 
	 258 26 2 -0.36642766480892863 -5.823584727968766 -4.81131389737628 0 0 0 
	 259 26 2 -0.6939654842640772 -5.073176887157704 -5.312519493190858 0 0 0 
	 254 26 4 -1.4835622736305412 -8.559858353195319 -3.9641911709295603 0 0 0 
	 257 26 4 2.251921949848782 -6.526680373126246 -3.3612443096728484 0 0 0 
	 260 26 4 -0.8850292122795808 -4.635438980017918 -5.604889424082695 0 0 0 
	 261 27 1 -11.61906419355612 12.96354921403465 2.102818421415371 0 0 0 
	 262 27 2 -11.85622856951926 12.131890940750718 1.6860480106945477 0 0 0 
	 263 27 2 -12.093392945482401 11.300232667466787 1.2692775999737242 0 0 0 
	 265 27 2 -12.304609351506974 13.58528523536344 2.357910867780185 0 0 0 
	 266 27 2 -12.990154509457827 14.207021256692231 2.613003314144999 0 0 0 
	 268 27 2 -10.696354659642127 13.173471465989792 2.2644963857713805 0 0 0 
	 269 27 2 -9.773645125728134 13.383393717944932 2.4261743501273902 0 0 0 
	 264 27 3 -12.2317388314609 10.815098674717827 1.0261615270532438 0 0 0 
	 267 27 3 -13.390055851595825 14.569700602467357 2.7618072411911405 0 0 0 
	 270 27 3 -9.235397897611637 13.505848364918766 2.5204864960017286 0 0 0 
	 271 28 1 0.8096224808154862 14.36713905340226 -10.307112059463304 0 0 0 
	 272 28 2 0.3861094361995811 14.243426631848767 -9.454509022995842 0 0 0 
	 273 28 2 -0.03740360841632395 14.119714210295275 -8.60190598652838 0 0 0 
	 275 28 2 0.5472272636240963 15.097725345678526 -10.871906198537976 0 0 0 
	 276 28 2 0.28483204643270654 15.828311637954794 -11.436700337612649 0 0 0 
	 278 28 2 1.4955307426227806 13.760265182679486 -10.594920956856093 0 0 0 
	 279 28 2 2.181439004430075 13.153391311956714 -10.882729854248884 0 0 0 
	 274 28 4 -0.2844528844422687 14.047548631055736 -8.104554215255693 0 0 0 
	 277 28 4 0.1317681697377293 16.25448697511595 -11.766163585406208 0 0 0 
	 280 28 4 2.5815521571509974 12.799381554035095 -11.05061837772801 0 0 0 
	 281 29 1 13.765986583913197 1.2927995305238538 4.665538094080737 0 0 0 
	 282 29 2 12.960676475257232 1.214710011587518 5.182236899893958 0 0 0 
	 283 29 2 12.155366366601266 1.1366204926511823 5.6989357057071794 0 0 0 
	 285 29 2 13.742595228400653 1.7071760714524524 3.79989097959624 0 0 0 
	 286 29 2 13.719203872888107 2.121552612381051 2.934243865111743 0 0 0 
	 288 29 2 14.594688048081707 0.9565125085315911 5.014486402752012 0 0 0 
	 289 29 2 15.423389512250216 0.6202254865393284 5.363434711423287 0 0 0 
	 284 29 3 11.685602136551953 1.091068273271653 6.000343342431559 0 0 0 
	 287 29 3 13.70555891550579 2.363272261256067 2.42928304832912 0 0 0 
	 290 29 3 15.906798699681847 0.4240580570438417 5.5669878914815305 0 0 0 
	 291 30 1 9.294078066551501 -4.642771017039795 -13.681220340783455 0 0 0 
	 292 30 2 10.003593261916304 -4.825933848351025 -14.301413508089011 0 0 0 
	 293 30 2 10.713108457281109 -5.009096679662254 -14.921606675394568 0 0 0 
	 295 30 2 8.920986440823752 -3.759975574402237 -13.625769053420731 0 0 0 
	 296 30 2 8.547894815096003 -2.8771801317646792 -13.570317766058007 0 0 0 
	 298 30 2 8.957654496914447 -5.342403628366123 -13.116478460840622 0 0 0 
	 299 30 2 8.621230927277391 -6.04203623969245 -12.551736580897789 0 0 0 
	 294 30 4 11.126992321243911 -5.115941664593805 -15.283386022989475 0 0 0 
	 297 30 4 8.330258033421481 -2.3622161235594374 -13.537971181763085 0 0 0 
	 300 30 4 8.42498384498911 -6.450155262966142 -12.222303817597803 0 0 0 
	 301 31 1 -15.490313271839241 0.05119553565901658 14.30515784065545 0 0 0 
	 302 31 2 -14.647160452496994 0.5068766645910724 14.249948856147258 0 0 0 
	 303 31 2 -13.804007633154747 0.9625577935231282 14.194739871639065 0 0 0 
	 305 31 2 -16.188918823379197 0.4002448916405783 14.863472116351867 0 0 0 
	 306 31 2 -16.88752437491915 0.74929424762214 15.421786392048281 0 0 0 
	 308 31 2 -15.634860539641535 -0.7535349492546006 13.802052549467229 0 0 0 
	 309 31 2 -15.779407807443828 -1.5582654341682178 13.298947258279005 0 0 0 
	 304 31 3 -13.312168488538434 1.2283717854001608 14.162534630675951 0 0 0 
	 307 31 3 -17.295044279984122 0.9529063719447177 15.747469719537857 0 0 0 
	 310 31 3 -15.863727046995166 -2.027691550367828 13.005469171752543 0 0 0 
	 311 32 1 -16.101439832574226 3.1900015990060515 15.825666904339442 0 0 0 
	 312 32 2 -15.609464447642818 2.4008576424405073 16.064019660643353 0 0 0 
	 313 32 2 -15.117489062711412 1.6117136858749634 16.302372416947268 0 0 0 
	 315 32 2 -16.44742552946055 3.7654592971439995 16.51177355436104 0 0 0 
	 316 32 2 -16.793411226346873 4.3409169952819475 17.19788020438264 0 0 0 
	 318 32 2 -16.24742952061931 3.4036878574336478 14.901207498013934 0 0 0 
	 319 32 2 -16.393419208664394 3.617374115861244 13.976748091688425 0 0 0 
	 314 32 4 -14.830503421501424 1.1513797112117294 16.441411524791214 0 0 0 
	 317 32 4 -16.995236216197227 4.676600652529084 17.5981090835619 0 0 0 
	 320 32 4 -16.478579860024027 3.742024433277342 13.43748010466521 0 0 0 
	 321 33 1 6.634296388484605 14.08242808773215 6.661338727954307 0 0 0 
	 322 33 2 7.100935162244783 13.433112636434407 7.192599209761118 0 0 0 
	 323 33 2 7.5675739360049565 12.783797185136661 7.723859691567927 0 0 0 
	 325 33 2 5.734436410176063 14.32967181467629 6.886555421219544 0 0 0 
	 326 33 2 4.834576431867523 14.576915541620423 7.111772114484776 0 0 0 
	 328 33 2 7.067517593032968 14.48449981208576 5.904861552882263 0 0 0 
	 329 33 2 7.500738797581327 14.88657153643937 5.148384377810217 0 0 0 
	 324 33 3 7.839779887365062 12.40502983854631 8.033761639288565 0 0 0 
	 327 33 3 4.309658111187542 14.721141049004506 7.243148518889498 0 0 0 
	 330 33 3 7.753451166901207 15.121113375645642 4.707106025684855 0 0 0 
	 331 34 1 -7.9098876199880275 6.457687875390201 9.147336166617483 0 0 0 
	 332 34 2 -8.769153407846387 6.792085435882296 8.88005246462073 0 0 0 
	 333 34 2 -9.628419195704746 7.12648299637439 8.612768762623979 0 0 0 
	 335 34 2 -7.6601650105597985 5.554541375171307 8.938613821185282 0 0 0 
	 336 34 2 -7.4104424011315695 4.6513948749524126 8.729891475753078 0 0 0 
	 338 34 2 -7.300344441557897 7.026436815117 9.623342214046438 0 0 0 
	 339 34 2 -6.690801263127766 7.595185754843799 10.099348261475393 0 0 0 
	 334 34 4 -10.129657571955455 7.3215482399947795 8.45685326979254 0 0 0 
	 337 34 4 -7.264770878965103 4.124559416491391 8.608136774250962 0 0 0 
	 340 34 4 -6.335234409043524 7.926955969684432 10.37701845580895 0 0 0 
	 341 35 1 -15.952074509431103 10.83563161695118 13.501591380691988 0 0 0 
	 342 35 2 -15.852583546446745 10.952633426918974 14.449226397324818 0 0 0 
	 343 35 2 -15.753092583462387 11.069635236886766 15.396861413957648 0 0 0 
	 345 35 2 -16.819724582143856 10.90899964592236 13.097363123829064 0 0 0 
	 346 35 2 -17.687374654856608 10.982367674893544 12.69313486696614 0 0 0 
	 348 35 2 -15.183915399702709 10.645261778012204 12.958184620922081 0 0 0 
	 349 35 2 -14.415756289974315 10.454891939073228 12.414777861152174 0 0 0 
	 344 35 3 -15.695056188388177 11.137886292701314 15.949648506993466 0 0 0 
	 347 35 3 -18.19350386393905 11.025165691793399 12.457335050462767 0 0 0 
	 350 35 3 -13.967663475966084 10.343842866358825 12.097790584619728 0 0 0 
	 351 36 1 10.456578614634529 12.344566098328835 -16.182992062203585 0 0 0 
	 352 36 2 10.835627091304259 12.779270023834167 -16.950425935240613 0 0 0 
	 353 36 2 11.214675567973988 13.213973949339499 -17.717859808277638 0 0 0 
	 355 36 2 10.520772484253792 12.755793981276568 -15.3179078030764 0 0 0 
	 356 36 2 10.584966353873057 13.1670218642243 -14.452823543949215 0 0 0 
	 358 36 2 10.013336268345535 11.498634289875772 -16.280642448293744 0 0 0 
	 359 36 2 9.570093922056541 10.652702481422708 -16.3782928343839 0 0 0 
	 354 36 4 11.435787179364665 13.46755123921761 -18.16552956754924 0 0 0 
	 357 36 4 10.622412777817626 13.40690479594381 -13.948191059458356 0 0 0 
	 360 36 4 9.311535886721295 10.159242259825088 -16.43525555960316 0 0 0 
	 361 37 1 -9.890084993503736 -14.047013228245548 -14.62219132951108 0 0 0 
	 362 37 2 -9.480357704079127 -13.261752355781962 -14.992446525934424 0 0 0 
	 363 37 2 -9.07063041465452 -12.476491483318375 -15.36270172235777 0 0 0 
	 365 37 2 -10.469222579869266 -13.972364339593604 -13.860202353552939 0 0 0 
	 366 37 2 -11.048360166234797 -13.897715450941657 -13.098213377594798 0 0 0 
	 368 37 2 -9.720674696562813 -14.90692298936108 -15.013925109045877 0 0 0 
	 369 37 2 -9.551264399621893 -15.766832750476613 -15.405658888580675 0 0 0 
	 364 37 3 -8.831622829156832 -12.018422641047948 -15.578683920271386 0 0 0 
	 367 37 3 -11.386190424948023 -13.85417026589469 -12.653719808285881 0 0 0 
	 370 37 3 -9.452441726406354 -16.268446777794004 -15.634170259975972 0 0 0 
	 371 38 1 -0.24039119453273194 10.167883127809269 -15.124939972125272 0 0 0 
	 372 38 2 -0.3456765671907057 10.07440798203845 -16.074559573559128 0 0 0 
	 373 38 2 -0.4509619398486795 9.98093283626763 -17.024179174992984 0 0 0 
	 375 38 2 -1.0120797264243846 10.28160452043587 -14.56532916575537 0 0 0 
	 376 38 2 -1.7837682583160375 10.395325913062472 -14.005718359385469 0 0 0 
	 378 38 2 0.6365827100168941 10.147636880953486 -14.734931177061318 0 0 0 
	 379 38 2 1.5135566145665202 10.127390634097702 -14.344922381997364 0 0 0 
	 374 38 4 -0.5123784072324975 9.92640566790132 -17.578123942496067 0 0 0 
	 377 38 4 -2.233919901919501 10.461663392094657 -13.67927872233636 0 0 0 
	 380 38 4 2.0251247255538023 10.11558032343183 -14.11741725154339 0 0 0 
	 381 39 1 15.957255916401065 -0.986758735759123 -1.519837122722103 0 0 0 
	 382 39 2 15.27092408066396 -1.6496740567483013 -1.4145190879343765 0 0 0 
	 383 39 2 14.58459224492685 -2.312589377737477 -1.3092010531466522 0 0 0 
	 385 39 2 16.620551994557026 -1.087463168436675 -2.2064934632171225 0 0 0 
	 386 39 2 17.28384807271299 -1.1881676011142268 -2.8931498037121424 0 0 0 
	 388 39 2 15.98029167398221 -0.22313898209239458 -0.9384988170148079 0 0 0 
	 389 39 2 16.003327431563356 0.5404807715743338 -0.3571605113075149 0 0 0 
	 384 39 3 14.184232007413538 -2.69928998164783 -1.2477655328538124 0 0 0 
	 387 39 3 17.670770784970635 -1.2469118535094665 -3.2936993356675712 0 0 0 
	 390 39 3 16.016764956819028 0.9859256278799249 -0.01804649964492544 0 0 0 
	 391 40 1 -9.606395409904994 -17.928511020859453 -0.9680713633601989 0 0 0 
	 392 40 2 -8.971229855415716 -17.953346314681465 -1.687479402355526 0 0 0 
	 393 40 2 -8.336064300926438 -17.978181608503476 -2.406887441350853 0 0 0 
	 395 40 2 -9.578701855832122 -18.597387202298332 -0.28000325556377015 0 0 0 
	 396 40 2 -9.551008301759248 -19.26626338373721 0.40806485223265865 0 0 0 
	 398 40 2 -10.269254518467147 -17.234799545598566 -0.9367314321613005 0 0 0 
	 399 40 2 -10.932113627029297 -16.541088070337675 -0.9053915009624022 0 0 0 