LAMMPS FENE chain data file 

20  atoms          
18  bonds          
18  angles         
0  dihedrals      
0  impropers    

4  atom types     
2  bond types     
3  angle types    
0  dihedral types 
0  improper types 

-10.000000 10.000000 xlo xhi  
-10.000000 10.000000 ylo yhi  
-10.000000 10.000000 zlo zhi  

Masses

	 1 1.0 
	 2 1.0 
	 3 1.0 
	 4 1.0 

Atoms 

	 1 1 1 8.250684967789134 2.4359485227120703 -1.5167628797849941 0 0 0 
	 2 1 2 7.929497730977518 1.5115663229306322 -1.5692634287016287 0 0 0 
	 3 1 2 7.608310494165901 0.5871841231491941 -1.6217639776182633 0 0 0 
	 5 1 2 6.96593602054267 -1.261580276413682 -1.7267650754515325 0 0 0 
	 6 1 2 6.644748783731053 -2.185962476195121 -1.7792656243681666 0 0 0 
	 8 1 2 6.002374310107822 -4.034726875757997 -1.8842667222014358 0 0 0 
	 9 1 2 5.681187073296206 -4.959109075539434 -1.9367672711180708 0 0 0 
	 4 1 3 7.287123257354286 -0.33719807663224355 -1.674264526534898 0 0 0 
	 7 1 3 6.3235615469194375 -3.1103446759765574 -1.831766173284802 0 0 0 
	 10 1 3 5.359999836484589 -5.883491275320873 -1.9892678200347045 0 0 0 
	 11 2 1 6.157586860018958 0.5484914551617925 -2.860012275340582 0 0 0 
	 12 2 2 5.526470968371676 -0.021772669110808995 -3.346727345867332 0 0 0 
	 13 2 2 4.895355076724394 -0.5920367933834105 -3.8334424163940817 0 0 0 
	 15 2 2 3.633123293429832 -1.7325650419286136 -4.806872557447582 0 0 0 
	 16 2 2 3.0020074017825498 -2.302829166201216 -5.293587627974332 0 0 0 
	 18 2 2 1.7397756184879878 -3.4433574147464183 -6.267017769027831 0 0 0 
	 19 2 2 1.1086597268407061 -4.01362153901902 -6.753732839554582 0 0 0 
	 14 2 4 4.264239185077113 -1.1623009176560124 -4.320157486920832 0 0 0 
	 17 2 4 2.370891510135268 -2.8730932904738173 -5.780302698501082 0 0 0 
	 20 2 4 0.4775438351934227 -4.583885663291623 -7.240447910081331 0 0 0 


Bonds 

	 1 1 1 2 
	 2 1 2 3 
	 3 1 1 5 
	 4 1 5 6 
	 5 1 1 8 
	 6 1 8 9 
	 7 2 3 4 
	 8 2 6 7 
	 9 2 9 10 
	 10 1 11 12 
	 11 1 12 13 
	 12 1 11 15 
	 13 1 15 16 
	 14 1 11 18 
	 15 1 18 19 
	 16 2 13 14 
	 17 2 16 17 
	 18 2 19 20 


Angles 

	 1 1 2 1 5 
	 2 1 5 1 8 
	 3 1 8 1 2 
	 4 2 1 2 3 
	 5 3 2 3 4 
	 6 2 1 5 6 
	 7 3 5 6 7 
	 8 2 1 8 9 
	 9 3 8 9 10 
	 10 1 12 11 15 
	 11 1 15 11 18 
	 12 1 18 11 12 
	 13 2 11 12 13 
	 14 3 12 13 14 
	 15 2 11 15 16 
	 16 3 15 16 17 
	 17 2 11 18 19 
	 18 3 18 19 20 
