LAMMPS FENE chain data file 

10000  atoms          
9000  bonds          
9000  angles         
0  dihedrals      
0  impropers    

4  atom types     
2  bond types     
2  angle types    
0  dihedral types 
0  improper types 

-25.000000 25.000000 xlo xhi  
-25.000000 25.000000 ylo yhi  
-25.000000 25.000000 zlo zhi  

Masses

	 1 1.0 
	 2 1.0 
	 3 1.0 
	 4 1.0 

Atoms 

	 1 1 1 -17.50098759292136 8.393217875932002 1.9686859366901344 0 0 0 
	 2 1 2 -16.863913062926223 8.76314817051929 1.3531474566760575 0 0 0 
	 3 1 2 -16.22683853293109 9.133078465106578 0.7376089766619807 0 0 0 
	 5 1 2 -18.365944833400366 8.798277431376617 2.065514283190269 0 0 0 
	 6 1 2 -19.230902073879374 9.203336986821231 2.162342629690403 0 0 0 
	 8 1 2 -17.273104882437487 7.6182280259001 2.4873960702040767 0 0 0 
	 9 1 2 -17.04522217195361 6.843238175868198 3.0061062037180193 0 0 0 
	 4 1 3 -15.85521172376726 9.348871136949164 0.378544863320436 0 0 0 
	 7 1 3 -19.735460464158795 9.439621727497258 2.2188258318154817 0 0 0 
	 10 1 3 -16.91229059083802 6.391160763349587 3.308687114934485 0 0 0 
	 11 2 1 -1.2701408258820046 7.986358112070896 -7.929081983161856 0 0 0 
	 12 2 2 -0.47487950737514106 8.293441625273172 -7.487653448508654 0 0 0 
	 13 2 2 0.3203818111317225 8.600525138475446 -7.046224913855452 0 0 0 
	 15 2 2 -2.1033000911855515 8.442276984276875 -7.789140493226665 0 0 0 
	 16 2 2 -2.936459356489099 8.898195856482854 -7.649199003291472 0 0 0 
	 18 2 2 -1.2322428790853213 7.223355726662641 -8.51045200775025 0 0 0 
	 19 2 2 -1.194344932288638 6.460353341254387 -9.091822032338644 0 0 0 
	 14 2 4 0.7842842469273927 8.77965718784344 -6.7887249353077515 0 0 0 
	 17 2 4 -3.422468927916168 9.164148531936343 -7.567566467495944 0 0 0 
	 20 2 4 -1.1722377966572393 6.0152686164329054 -9.430954546681873 0 0 0 
	 21 3 1 6.125247553584612 -21.986428907190565 -21.155698965220864 0 0 0 
	 22 3 2 6.068340029003947 -22.88319699549021 -20.817810626485265 0 0 0 
	 23 3 2 6.011432504423283 -23.77996508378985 -20.479922287749663 0 0 0 
	 25 3 2 5.63846221698598 -21.279610781874503 -20.72552670461211 0 0 0 
	 26 3 2 5.151676880387348 -20.57279265655844 -20.295354444003358 0 0 0 
	 28 3 2 6.668940414763908 -21.79647894420698 -21.923759564565216 0 0 0 
	 29 3 2 7.212633275943205 -21.606528981223402 -22.69182016390957 0 0 0 
	 24 3 3 5.978236448417895 -24.303079801964643 -20.282820756820563 0 0 0 
	 27 3 3 4.867718767371479 -20.160482083457403 -20.04442062531492 0 0 0 
	 30 3 3 7.529787444964461 -21.495724836149645 -23.13985551352711 0 0 0 
	 31 4 1 -15.20817054120357 16.424428666436793 14.046890966351999 0 0 0 
	 32 4 2 -15.029507159901158 17.11617802866393 14.688110286117034 0 0 0 
	 33 4 2 -14.850843778598746 17.807927390891074 15.329329605882068 0 0 0 
	 35 4 2 -16.09908968756072 16.081128434039833 13.946850848946845 0 0 0 
	 36 4 2 -16.990008833917873 15.737828201642875 13.84681073154169 0 0 0 
	 38 4 2 -14.49591477614883 16.07597953660661 13.50571176399212 0 0 0 
	 39 4 2 -13.78365901109409 15.727530406776431 12.964532561632238 0 0 0 
	 34 4 4 -14.746623472839007 18.21144785219024 15.703374209078339 0 0 0 
	 37 4 4 -17.50971166929288 15.537569732744648 13.788453996388684 0 0 0 
	 40 4 4 -13.368176481478825 15.524268414375491 12.648844693588975 0 0 0 
	 41 5 1 19.41837431959263 6.012073998360612 2.478818361609952 0 0 0 
	 42 5 2 19.46545471962514 5.530194847424581 3.307779108464681 0 0 0 
	 43 5 2 19.512535119657645 5.048315696488551 4.136739855319409 0 0 0 
	 45 5 2 19.82921513114556 5.651152727146049 1.6898027321402977 0 0 0 
	 46 5 2 20.240055942698486 5.290231455931487 0.9007871026706433 0 0 0 
	 48 5 2 18.960453108007194 6.854874420511205 2.4388732442248777 0 0 0 
	 49 5 2 18.502531896421758 7.697674842661798 2.3989281268398037 0 0 0 
	 44 5 3 19.539998686343278 4.7672195251091996 4.620300290984667 0 0 0 
	 47 5 3 20.479713082771028 5.079694047722992 0.4405279854800117 0 0 0 
	 50 5 3 18.235411189663584 8.189308422249644 2.375626808365177 0 0 0 
	 51 6 1 -0.9307712008116364 -9.98926936721854 -19.3730170513727 0 0 0 
	 52 6 2 -0.2856223653998232 -10.54810315075774 -19.81243460056941 0 0 0 
	 53 6 2 0.35952647001199 -11.10693693429694 -20.251852149766123 0 0 0 
	 55 6 2 -0.6503889272028759 -9.38356743952463 -18.683009112698176 0 0 0 
	 56 6 2 -0.37000665359411533 -8.777865511830719 -17.993001174023657 0 0 0 
	 58 6 2 -1.85630230983221 -10.036137511373251 -19.62360744085051 0 0 0 
	 59 6 2 -2.7818334188527833 -10.083005655527964 -19.874197830328317 0 0 0 
	 54 6 4 0.7358632906688811 -11.432923308028139 -20.508179053464204 0 0 0 
	 57 6 4 -0.2064503273223386 -8.424539387342602 -17.590496543130186 0 0 0 
	 60 6 4 -3.321726565781451 -10.110345406284878 -20.020375557523707 0 0 0 
	 61 7 1 -3.3754212685145504 -0.9342619821324227 12.150400168773528 0 0 0 
	 62 7 2 -3.2079860050000404 -0.9750942915000966 11.205996571235097 0 0 0 
	 63 7 2 -3.0405507414855304 -1.0159266008677705 10.261592973696668 0 0 0 
	 65 7 2 -3.0836375815297425 -1.6490491528094657 12.720962681251399 0 0 0 
	 66 7 2 -2.7918538945449347 -2.3638363234865087 13.291525193729267 0 0 0 
	 68 7 2 -3.834640219013868 -0.17864250208770627 12.524241253834088 0 0 0 
	 69 7 2 -4.293859169513186 0.5769769779570102 12.89808233889465 0 0 0 
	 64 7 3 -2.9428801711020665 -1.0397454479989137 9.710690875132585 0 0 0 
	 67 7 3 -2.6216467438037965 -2.7807955063814505 13.624353326008025 0 0 0 
	 70 7 3 -4.561736890637787 1.017755007983095 13.116156305179976 0 0 0 
	 71 8 1 1.7429499546511684 0.6720530068794361 -0.5820485399842312 0 0 0 
	 72 8 2 1.6706890309178561 0.31016107186947045 0.3041865226689856 0 0 0 
	 73 8 2 1.598428107184544 -0.05173086314049524 1.1904215853222024 0 0 0 
	 75 8 2 2.3751357668368622 0.30103646831616326 -1.2019580712737914 0 0 0 
	 76 8 2 3.0073215790225563 -0.06998007024710962 -1.8218676025633516 0 0 0 
	 78 8 2 1.1830250661987871 1.4049614804526744 -0.8483740713478881 0 0 0 
	 79 8 2 0.623100177746406 2.1378699540259127 -1.114699602711545 0 0 0 
	 74 8 4 1.556275901673445 -0.2628344918963086 1.7073920385365795 0 0 0 
	 77 8 4 3.3760966361308773 -0.28640638440901856 -2.1834814958155953 0 0 0 
	 80 8 4 0.29647732614918354 2.565399896943635 -1.270056162673678 0 0 0 
	 81 9 1 -20.34304702326701 19.762449729217057 14.311541037182796 0 0 0 
	 82 9 2 -20.863736815816917 19.46491183702086 13.561905564008146 0 0 0 
	 83 9 2 -21.384426608366823 19.167373944824668 12.812270090833497 0 0 0 
	 85 9 2 -19.456562983913283 20.104539406816563 14.174717426460957 0 0 0 
	 86 9 2 -18.570078944559555 20.44662908441607 14.037893815739118 0 0 0 
	 88 9 2 -20.708841270070835 19.717897943813746 15.198000121079284 0 0 0 
	 89 9 2 -21.074635516874658 19.673346158410432 16.084459204975772 0 0 0 
	 84 9 3 -21.688162320687603 18.993810174376886 12.374982731481618 0 0 0 
	 87 9 3 -18.052963254936543 20.646181396349117 13.958080042818045 0 0 0 
	 90 9 3 -21.288015494176886 19.647357616925166 16.601560337248724 0 0 0 
	 91 10 1 17.468982122220556 -18.56181274037368 -8.869301089967168 0 0 0 
	 92 10 2 17.112002936391608 -18.686065610476483 -9.751756236224539 0 0 0 
	 93 10 2 16.755023750562664 -18.810318480579287 -10.63421138248191 0 0 0 
	 95 10 2 18.053412165006957 -19.222537773698097 -8.490508329440875 0 0 0 
	 96 10 2 18.637842207793362 -19.883262807022515 -8.111715568914581 0 0 0 
	 98 10 2 17.2415312652631 -17.776834836946456 -8.36563870423609 0 0 0 
	 99 10 2 17.014080408305645 -16.991856933519234 -7.861976318505013 0 0 0 
	 94 10 4 16.546785892162443 -18.88279932147259 -11.148976884465377 0 0 0 
	 97 10 4 18.978759732752096 -20.268685743128426 -7.890753125274243 0 0 0 
	 100 10 4 16.88140074174713 -16.53395315652002 -7.568173260161885 0 0 0 
	 101 11 1 -9.023916419340134 -12.44811028383922 -17.772051380331465 0 0 0 
	 102 11 2 -9.283873301693971 -11.944430335074207 -16.997242417729105 0 0 0 
	 103 11 2 -9.543830184047808 -11.440750386309194 -16.222433455126744 0 0 0 
	 105 11 2 -8.216643258232986 -12.224763246564702 -18.241120825399857 0 0 0 
	 106 11 2 -7.409370097125839 -12.001416209290186 -18.710190270468246 0 0 0 
	 108 11 2 -9.571232698093445 -13.17513726987875 -18.077790897865434 0 0 0 
	 109 11 2 -10.118548976846753 -13.902164255918281 -18.383530415399406 0 0 0 
	 104 11 3 -9.695471698754213 -11.146937082862935 -15.770461560275367 0 0 0 
	 107 11 3 -6.9384607531466695 -11.871130437546718 -18.98381411342481 0 0 0 
	 110 11 3 -10.43781680611952 -14.326263331108008 -18.56187846729422 0 0 0 
	 111 12 1 -19.935811553102983 5.157541525621534 -10.973875906429692 0 0 0 
	 112 12 2 -19.69473297186136 4.327150524960117 -10.556824466332603 0 0 0 
	 113 12 2 -19.453654390619736 3.496759524298699 -10.139773026235515 0 0 0 
	 115 12 2 -19.409630294887055 5.944732585271476 -10.81556128578616 0 0 0 
	 116 12 2 -18.883449036671127 6.731923644921418 -10.657246665142628 0 0 0 
	 118 12 2 -20.703071392560535 5.20074146663301 -11.549241967170312 0 0 0 
	 119 12 2 -21.470331232018083 5.243941407644487 -12.124608027910933 0 0 0 
	 114 12 4 -19.31302521822879 3.012364773912872 -9.896493019512214 0 0 0 
	 117 12 4 -18.576509969378506 7.191118429717216 -10.564896469767234 0 0 0 
	 120 12 4 -21.917899471701652 5.269141373234514 -12.460238230009628 0 0 0 
	 121 13 1 -0.014249968941976165 21.427344682270576 4.703507526800293 0 0 0 
	 122 13 2 0.8855471464723448 21.44086746034477 4.369168947564778 0 0 0 
	 123 13 2 1.7853442618866657 21.454390238418963 4.034830368329263 0 0 0 
	 125 13 2 -0.4454841867724015 20.589574610162437 4.887296415615985 0 0 0 
	 126 13 2 -0.8767184046028268 19.7518045380543 5.071085304431676 0 0 0 
	 128 13 2 -0.48281286652587196 22.251591976304518 4.8540572172201175 0 0 0 
	 129 13 2 -0.9513757641097678 23.075839270338463 5.004606907639941 0 0 0 
	 124 13 3 2.31022591254502 21.46227852562891 3.839799530441878 0 0 0 
	 127 13 3 -1.1282716983372414 19.263105329324553 5.178295489574163 0 0 0 
	 130 13 3 -1.2247041210337068 23.556650191858264 5.092427560384839 0 0 0 
	 131 14 1 -0.26102323142257466 -6.545872504692063 -6.981044309269658 0 0 0 
	 132 14 2 0.6524103144512827 -6.3992717316115515 -7.237456810143753 0 0 0 
	 133 14 2 1.5658438603251401 -6.25267095853104 -7.493869311017848 0 0 0 
	 135 14 2 -0.7879245092493775 -7.205488871279355 -7.4380796387078325 0 0 0 
	 136 14 2 -1.3148257870761804 -7.865105237866648 -7.895114968146008 0 0 0 
	 138 14 2 -0.6475554994696294 -6.032856911185283 -6.267596478957388 0 0 0 
	 139 14 2 -1.0340877675166842 -5.5198413176785035 -5.554148648645118 0 0 0 
	 134 14 4 2.0986800954182234 -6.167153840900742 -7.643443269861071 0 0 0 
	 137 14 4 -1.6221848658084816 -8.249881451709236 -8.161718910318276 0 0 0 
	 140 14 4 -1.259564923877466 -5.2205822214662145 -5.137970747629627 0 0 0 
	 141 15 1 -4.289932517520062 15.986036542147502 8.780625138312914 0 0 0 
	 142 15 2 -4.279502449668829 16.92011732608931 8.559301161402882 0 0 0 
	 143 15 2 -4.269072381817596 17.854198110031124 8.33797718449285 0 0 0 
	 145 15 2 -5.123129365900555 15.510550275201037 8.816622663146283 0 0 0 
	 146 15 2 -5.956326214281048 15.035064008254572 8.852620187979653 0 0 0 
	 148 15 2 -3.467165736990802 15.527442025152157 8.965951590389576 0 0 0 
	 149 15 2 -2.6443989564615427 15.068847508156813 9.151278042466238 0 0 0 
	 144 15 3 -4.262988175571043 18.399078567330513 8.208871531295332 0 0 0 
	 147 15 3 -6.442357709169668 14.757697019202467 8.87361874413245 0 0 0 
	 150 15 3 -2.1644516678194745 14.801334039909527 9.259385139510957 0 0 0 
	 151 16 1 16.83254727385218 13.877059945378079 17.53640290644093 0 0 0 
	 152 16 2 16.910186525569937 13.80169972288017 18.49028601429942 0 0 0 
	 153 16 2 16.987825777287693 13.72633950038226 19.44416912215791 0 0 0 
	 155 16 2 16.020479005881736 14.207784944317117 17.14554986086977 0 0 0 
	 156 16 2 15.208410737911288 14.538509943256155 16.75469681529861 0 0 0 
	 158 16 2 17.566976290104872 13.62169516893695 16.973372844153598 0 0 0 
	 159 16 2 18.301405306357566 13.366330392495822 16.41034278186627 0 0 0 
	 154 16 4 17.033115340789717 13.682379370591812 20.000600935075365 0 0 0 
	 157 16 4 14.73470424826186 14.73143285930393 16.5266992053821 0 0 0 
	 160 16 4 18.72982223250497 13.217367606238497 16.081908578865324 0 0 0 
	 161 17 1 12.028629094172032 15.536218263841024 14.679491669487405 0 0 0 
	 162 17 2 11.443505023158467 15.065807400059628 14.081207923463033 0 0 0 
	 163 17 2 10.858380952144902 14.595396536278233 13.482924177438662 0 0 0 
	 165 17 2 12.935744974794856 15.715597247202167 14.421491748072295 0 0 0 
	 166 17 2 13.842860855417678 15.89497623056331 14.163491826657184 0 0 0 
	 168 17 2 11.706637284562774 15.827250144261274 15.535775336926886 0 0 0 
	 169 17 2 11.384645474953517 16.118282024681527 16.392059004366367 0 0 0 
	 164 17 3 10.51705857738699 14.320990199072419 13.133925325591111 0 0 0 
	 167 17 3 14.372011785780991 15.999613970857311 14.01299187249837 0 0 0 
	 170 17 3 11.196816919348116 16.28805062159334 16.89155781037273 0 0 0 
	 171 18 1 13.351910660800003 5.306937609586254 -7.207391342243036 0 0 0 
	 172 18 2 14.270618475168897 5.57879019714566 -7.267989382267328 0 0 0 
	 173 18 2 15.18932628953779 5.850642784705068 -7.328587422291619 0 0 0 
	 175 18 2 13.133750839539719 4.392458547462745 -7.013138060866923 0 0 0 
	 176 18 2 12.915591018279434 3.4779794853392354 -6.8188847794908085 0 0 0 
	 178 18 2 12.651362667691394 5.949564084150356 -7.341046583594858 0 0 0 
	 179 18 2 11.950814674582785 6.592190558714458 -7.4747018249466795 0 0 0 
	 174 18 4 15.725239181252977 6.009223460781389 -7.3639362789724565 0 0 0 
	 177 18 4 12.788331122544268 2.944533365767189 -6.705570365354743 0 0 0 
	 180 18 4 11.542161678602763 6.967056002210184 -7.552667382401909 0 0 0 
	 181 19 1 -18.86482636669915 -6.240820169564892 12.730085616360103 0 0 0 
	 182 19 2 -18.895981574280714 -5.890122735743581 11.836978308724735 0 0 0 
	 183 19 2 -18.92713678186228 -5.539425301922269 10.943871001089367 0 0 0 
	 185 19 2 -18.304019571183304 -6.993674410829593 12.930849730466687 0 0 0 
	 186 19 2 -17.74321277566746 -7.746528652094293 13.131613844573268 0 0 0 
	 188 19 2 -19.394477954633427 -5.838663362121504 13.422428809888888 0 0 0 
	 189 19 2 -19.924129542567705 -5.4365065546781155 14.114772003417675 0 0 0 
	 184 19 3 -18.945310652951527 -5.334851798859837 10.422891738302068 0 0 0 
	 187 19 3 -17.416075478283215 -8.185693626165367 13.248726244468774 0 0 0 
	 190 19 3 -20.233092968862703 -5.201915083669472 14.518638866309466 0 0 0 
	 191 20 1 -21.089352151883485 0.72275953983304 18.75394558250307 0 0 0 
	 192 20 2 -20.92126915454036 0.01971558589899991 19.38567123881358 0 0 0 
	 193 20 2 -20.753186157197238 -0.6833283680350402 20.01739689512409 0 0 0 
	 195 20 2 -20.433016937411367 0.9352441497494406 18.086357103878317 0 0 0 
	 196 20 2 -19.776681722939248 1.1477287596658412 17.418768625253563 0 0 0 
	 198 20 2 -21.913770363698728 1.2133188838506794 18.789808404817318 0 0 0 
	 199 20 2 -22.738188575513966 1.7038782278683189 18.82567122713156 0 0 0 
	 194 20 4 -20.655137742080417 -1.0934373411632303 20.385903527971887 0 0 0 
	 197 20 4 -19.39381951449718 1.2716781154504084 17.029342012722456 0 0 0 
	 200 20 4 -23.219099199072858 1.9900378452119416 18.84659120681487 0 0 0 
	 201 21 1 9.840859044382222 22.37111089934843 -19.87285769893531 0 0 0 
	 202 21 2 10.214586137270409 23.073314861238337 -19.335421511144183 0 0 0 
	 203 21 2 10.588313230158597 23.775518823128248 -18.797985323353053 0 0 0 
	 205 21 2 9.367679886303126 22.584753028927867 -20.680359107496507 0 0 0 
	 206 21 2 8.89450072822403 22.798395158507304 -21.487860516057708 0 0 0 
	 208 21 2 9.940311109573132 21.455264807879086 -19.602792478165238 0 0 0 
	 209 21 2 10.039763174764042 20.53941871640974 -19.332727257395167 0 0 0 
	 204 21 3 10.806320701010039 24.18513780089736 -18.484480880474894 0 0 0 
	 207 21 3 8.61847955267789 22.92301973409531 -21.95890300438507 0 0 0 
	 210 21 3 10.097776879458738 20.005175163052623 -19.17518921194596 0 0 0 
	 211 22 1 -16.565503879314598 -11.754794316927835 -11.728989613704355 0 0 0 
	 212 22 2 -15.659961847663553 -11.713089810151201 -12.044987023547877 0 0 0 
	 213 22 2 -14.754419816012508 -11.671385303374567 -12.3609844333914 0 0 0 
	 215 22 2 -16.80365477296685 -11.337089471765445 -10.898082390134542 0 0 0 
	 216 22 2 -17.041805666619105 -10.919384626603055 -10.067175166564727 0 0 0 
	 218 22 2 -17.23289501731339 -12.21420366886686 -12.243899427430646 0 0 0 
	 219 22 2 -17.90028615531218 -12.673613020805885 -12.758809241156937 0 0 0 
	 214 22 4 -14.226186964216064 -11.64705767442153 -12.54531625580012 0 0 0 
	 217 22 4 -17.180727021249588 -10.675723466924994 -9.582479286149002 0 0 0 
	 220 22 4 -18.289597652478143 -12.941601809436982 -13.059173299163941 0 0 0 
	 221 23 1 4.918846274308997 -17.785135546419166 7.192009050937659 0 0 0 
	 222 23 2 5.874072754229206 -17.814166690085933 7.2831109979895485 0 0 0 
	 223 23 2 6.829299234149415 -17.8431978337527 7.374212945041438 0 0 0 
	 225 23 2 4.503358250742841 -17.0584555584926 6.722002777128324 0 0 0 
	 226 23 2 4.087870227176684 -16.331775570566037 6.251996503318988 0 0 0 
	 228 23 2 4.379107817954944 -18.482784390678965 7.5709133776951045 0 0 0 
	 229 23 2 3.839369361600891 -19.18043323493876 7.94981770445255 0 0 0 
	 224 23 3 7.3865146807695385 -17.860132667558318 7.427355747488374 0 0 0 
	 227 23 3 3.84550221342976 -15.907878910942205 5.9778261769302095 0 0 0 
	 230 23 3 3.5245219287276934 -19.587395060756975 8.170845228394393 0 0 0 
	 231 24 1 -8.43325807852009 14.272801287588631 -2.12655671451078 0 0 0 
	 232 24 2 -8.439146523139948 15.227140815394328 -2.0226269695502577 0 0 0 
	 233 24 2 -8.445034967759808 16.181480343200025 -1.9186972245897347 0 0 0 
	 235 24 2 -7.681474241693784 13.839295054007751 -2.537036200153163 0 0 0 
	 236 24 2 -6.929690404867477 13.405788820426869 -2.947515685795546 0 0 0 
	 238 24 2 -9.179153470726538 13.751967993363817 -1.8200069738289202 0 0 0 
	 239 24 2 -9.925048862932986 13.231134699139002 -1.5134572331470602 0 0 0 
	 234 24 4 -8.448469893788058 16.73817840108668 -1.8580715400294299 0 0 0 
	 237 24 4 -6.491149833385464 13.152910184171356 -3.1869620524202693 0 0 0 
	 240 24 4 -10.360154508386747 12.927315277507859 -1.3346365510826417 0 0 0 
	 241 25 1 16.93709493634624 7.293007486427605 -18.662306593966804 0 0 0 
	 242 25 2 17.144675032749475 6.996536800849415 -17.77314089727691 0 0 0 
	 243 25 2 17.352255129152713 6.700066115271225 -16.88397520058702 0 0 0 
	 245 25 2 17.643806785541035 7.454898917873436 -19.291551797867555 0 0 0 
	 246 25 2 18.350518634735828 7.616790349319267 -19.920797001768303 0 0 0 
	 248 25 2 16.022802990748215 7.427586740559964 -18.922227086755946 0 0 0 
	 249 25 2 15.108511045150186 7.562165994692323 -19.182147579545088 0 0 0 
	 244 25 3 17.47334351872127 6.527124882017281 -16.36529521085125 0 0 0 
	 247 25 3 18.762767213432788 7.711227017662668 -20.28785670404374 0 0 0 
	 250 25 3 14.57517407688467 7.640670559602866 -19.33376786700542 0 0 0 
	 251 26 1 -15.448258687580157 -15.224666986848762 -15.570531078114453 0 0 0 
	 252 26 2 -15.847428319345035 -14.40946752694016 -15.883122577745226 0 0 0 
	 253 26 2 -16.246597951109912 -13.594268067031557 -16.195714077376003 0 0 0 
	 255 26 2 -15.78300775026831 -15.649764598372053 -14.777539851361851 0 0 0 
	 256 26 2 -16.11775681295646 -16.074862209895343 -13.98454862460925 0 0 0 
	 258 26 2 -14.71433999312713 -15.614768835234072 -16.05093080523628 0 0 0 
	 259 26 2 -13.9804212986741 -16.004870683619384 -16.53133053235811 0 0 0 
	 254 26 4 -16.479446902972754 -13.118735048751539 -16.378059118827288 0 0 0 
	 257 26 4 -16.31302709952455 -16.322835816617264 -13.521970409003565 0 0 0 
	 260 26 4 -13.552302060243166 -16.23243009517748 -16.811563706512505 0 0 0 
	 261 27 1 -14.591654288662681 -11.223488196355753 21.487961081604467 0 0 0 
	 262 27 2 -13.821773680772871 -10.659687420308925 21.383020457801234 0 0 0 
	 263 27 2 -13.051893072883061 -10.095886644262098 21.278079833998 0 0 0 
	 265 27 2 -15.022989261940639 -11.292689085228542 22.34280690267779 0 0 0 
	 266 27 2 -15.454324235218595 -11.36188997410133 23.19765272375111 0 0 0 
	 268 27 2 -14.930199923274534 -11.718088083529791 20.738055884334383 0 0 0 
	 269 27 2 -15.268745557886389 -12.212687970703827 19.988150687064294 0 0 0 
	 264 27 3 -12.602796051614005 -9.767002858234783 21.216864470112778 0 0 0 
	 267 27 3 -15.70593630296407 -11.402257159277125 23.69631278604388 0 0 0 
	 270 27 3 -15.46623051140997 -12.50120457155535 19.550705988656745 0 0 0 
	 271 28 1 22.613508655350746 -4.491622688427816 11.237782882468494 0 0 0 
	 272 28 2 23.374786455967094 -4.7707094297968 10.723811384152901 0 0 0 
	 273 28 2 24.136064256583445 -5.049796171165784 10.209839885837308 0 0 0 
	 275 28 2 22.33345285321998 -5.005673658696589 11.998651036394406 0 0 0 
	 276 28 2 22.053397051089217 -5.5197246289653625 12.759519190320319 0 0 0 
	 278 28 2 22.132286656865162 -3.6984849767900583 10.990886226858175 0 0 0 
	 279 28 2 21.651064658379575 -2.905347265152301 10.743989571247853 0 0 0 
	 274 28 4 24.58014297360965 -5.212596770297692 9.910023178486547 0 0 0 
	 277 28 4 21.890031166512937 -5.81958769495548 13.2033589467771 0 0 0 
	 280 28 4 21.370351825929653 -2.442683600030276 10.599966522141834 0 0 0 
	 281 29 1 17.25960863658672 -7.824665781391476 7.381844870520682 0 0 0 
	 282 29 2 16.55750367542697 -7.853754951769327 8.035910955623402 0 0 0 
	 283 29 2 15.855398714267224 -7.882844122147178 8.689977040726122 0 0 0 
	 285 29 2 17.14229100916262 -7.319705496960499 6.573852490950821 0 0 0 
	 286 29 2 17.02497338173852 -6.814745212529522 5.7658601113809596 0 0 0 
	 288 29 2 18.079031225170567 -8.300536895444603 7.535771164987823 0 0 0 
	 289 29 2 18.89845381375441 -8.776408009497729 7.6896974594549645 0 0 0 
	 284 29 3 15.44583748692404 -7.899812804867591 9.071515590369376 0 0 0 
	 287 29 3 16.95653809907446 -6.520185046611452 5.29453122329854 0 0 0 
	 290 29 3 19.376450323761656 -9.053999492695386 7.77948779789413 0 0 0 
	 291 30 1 -17.467917929341763 9.513263754263823 -21.31016767920991 0 0 0 
	 292 30 2 -17.649878299189734 8.928410522953023 -20.570953825423267 0 0 0 
	 293 30 2 -17.831838669037705 8.343557291642222 -19.83173997163662 0 0 0 
	 295 30 2 -16.67071764296693 10.048105708990924 -21.314140948339745 0 0 0 
	 296 30 2 -15.873517356592098 10.582947663718025 -21.31811421746958 0 0 0 
	 298 30 2 -18.083157845868623 9.563275030847523 -22.045408263866722 0 0 0 
	 299 30 2 -18.698397762395484 9.613286307431222 -22.780648848523533 0 0 0 
	 294 30 4 -17.93798221811569 8.002392906710922 -19.400531890261075 0 0 0 
	 297 30 4 -15.408483856206779 10.894938803975501 -21.320431957795318 0 0 0 
	 300 30 4 -19.05728771370282 9.642459552105047 -23.209539189573338 0 0 0 
	 301 31 1 15.52327763928732 -17.191121206016184 -22.243389679445404 0 0 0 
	 302 31 2 16.383684660191456 -17.22792544077627 -21.819190190192295 0 0 0 
	 303 31 2 17.24409168109559 -17.264729675536362 -21.39499070093919 0 0 0 
	 305 31 2 15.44998888150497 -17.31851934124537 -23.192072172760657 0 0 0 
	 306 31 2 15.37670012372262 -17.445917476474555 -24.14075466607591 0 0 0 
	 308 31 2 14.736159376165537 -17.026918836026912 -21.71890667538326 0 0 0 
	 309 31 2 13.949041113043753 -16.862716466037636 -21.19442367132111 0 0 0 
	 304 31 3 17.745995776622998 -17.286198812479746 -21.147540998874877 0 0 0 
	 307 31 3 15.333948348349582 -17.520233055358247 -24.694152787176474 0 0 0 
	 310 31 3 13.489888792889381 -16.76693175021056 -20.888475252284863 0 0 0 
	 311 32 1 13.482350056332765 -3.238556739084136 11.1992701437028 0 0 0 
	 312 32 2 13.733483938519838 -3.769465004260382 11.958656861512111 0 0 0 
	 313 32 2 13.984617820706909 -4.300373269436628 12.718043579321423 0 0 0 
	 315 32 2 13.23132287300151 -3.6655824688050185 10.376935431201177 0 0 0 
	 316 32 2 12.980295689670255 -4.092608198525901 9.554600718699556 0 0 0 
	 318 32 2 13.482243357476948 -2.280622744187008 11.26221813839511 0 0 0 
	 319 32 2 13.48213665862113 -1.32268874928988 11.32516613308742 0 0 0 
	 314 32 4 14.131112585316034 -4.610069757456105 13.161019164710186 0 0 0 
	 317 32 4 12.833863166060356 -4.341706540863082 9.074905469740276 0 0 0 
	 320 32 4 13.482074417621902 -0.7638939189332223 11.361885796657933 0 0 0 
	 321 33 1 4.844301428134424 11.665675433980754 -16.456847754825382 0 0 0 
	 322 33 2 4.9508812472496215 12.25479711086393 -17.207298547338606 0 0 0 
	 323 33 2 5.057461066364819 12.843918787747107 -17.95774933985183 0 0 0 
	 325 33 2 5.606964184969634 11.417727346578651 -15.92914777823816 0 0 0 
	 326 33 2 6.369626941804844 11.169779259176547 -15.401447801650937 0 0 0 
	 328 33 2 3.975058852184016 11.32450184449968 -16.23409693889938 0 0 0 
	 329 33 2 3.1058162762336083 10.983328255018607 -16.01134612297338 0 0 0 
	 324 33 3 5.119632627515351 13.187573099262293 -18.39551230215121 0 0 0 
	 327 33 3 6.814513549958717 11.025142874858654 -15.09362281530839 0 0 0 
	 330 33 3 2.5987581069292034 10.784310327821315 -15.881408147016547 0 0 0 
	 331 34 1 -22.084634958932003 -6.112249940984638 -0.4467559885035721 0 0 0 
	 332 34 2 -21.95804027085886 -7.0502714027726405 -0.6070355011580637 0 0 0 
	 333 34 2 -21.831445582785715 -7.988292864560644 -0.7673150138125553 0 0 0 
	 335 34 2 -22.12832790277267 -5.780657836188563 0.45309822340824946 0 0 0 
	 336 34 2 -22.17202084661334 -5.449065731392489 1.352952435320071 0 0 0 
	 338 34 2 -22.16753670316448 -5.50582058399271 -1.1863306877609014 0 0 0 
	 339 34 2 -22.25043844739696 -4.899391227000782 -1.925905387018231 0 0 0 
	 334 34 4 -21.757598681409714 -8.535472050603646 -0.8608113961943421 0 0 0 
	 337 34 4 -22.19750839718706 -5.255637003594778 1.8778673922686335 0 0 0 
	 340 34 4 -22.298797798199235 -4.54564076875549 -2.3573239615850063 0 0 0 
	 341 35 1 17.175104295123724 -0.5574647971656188 -11.50022485679743 0 0 0 
	 342 35 2 18.004987902856385 -0.5048433281469643 -11.020512256780568 0 0 0 
	 343 35 2 18.83487151058905 -0.45222185912830987 -10.540799656763706 0 0 0 
	 345 35 2 16.72971265583807 0.2461649140560871 -11.778443430757111 0 0 0 
	 346 35 2 16.284321016552422 1.049794625277793 -12.05666200471679 0 0 0 
	 348 35 2 16.79061232667671 -1.4137159774059787 -11.701718882854614 0 0 0 
	 349 35 2 16.4061203582297 -2.2699671576463385 -11.903212908911796 0 0 0 
	 344 35 3 19.318970281766436 -0.4215260022007613 -10.26096730675387 0 0 0 
	 347 35 3 16.024509226969123 1.5185786234904546 -12.218956172859937 0 0 0 
	 350 35 3 16.18183337663561 -2.7694470127865487 -12.020751090778486 0 0 0 
	 351 36 1 18.53417647024575 -6.572736423465053 -5.265613287579429 0 0 0 
	 352 36 2 19.168526026400848 -6.507672889375499 -4.5480010126442725 0 0 0 
	 353 36 2 19.80287558255594 -6.442609355285945 -3.830388737709116 0 0 0 
	 355 36 2 18.444761849880358 -7.394240441698548 -5.754219646206836 0 0 0 
	 356 36 2 18.355347229514965 -8.215744459932043 -6.242826004834243 0 0 0 
	 358 36 2 17.989241534456045 -5.816295939321113 -5.494619203887178 0 0 0 
	 359 36 2 17.44430659866634 -5.059855455177173 -5.723625120194927 0 0 0 
	 354 36 4 20.172912823646417 -6.404655627067037 -3.4117815773302755 0 0 0 
	 357 36 4 18.303188700968487 -8.694955137234917 -6.527846380700231 0 0 0 
	 360 36 4 17.126427886122347 -4.618598506093207 -5.857211904707781 0 0 0 
	 361 37 1 -7.171496298024632 -0.814093298895463 4.817220796478661 0 0 0 
	 362 37 2 -7.435570820051923 -1.6014025349794054 5.298893728656687 0 0 0 
	 363 37 2 -7.699645342079213 -2.3887117710633476 5.7805666608347135 0 0 0 
	 365 37 2 -7.490163066143348 0.047887662630192174 5.0947821642229485 0 0 0 
	 366 37 2 -7.808829834262063 0.9098686241558473 5.372343531967236 0 0 0 
	 368 37 2 -6.588755007878626 -0.8887650243371756 4.057986496556347 0 0 0 
	 369 37 2 -6.006013717732619 -0.9634367497788882 3.298752196634033 0 0 0 
	 364 37 3 -7.853688813261799 -2.8479754921123144 6.061542537938562 0 0 0 
	 367 37 3 -7.994718782331314 1.4126908517124794 5.53425432981807 0 0 0 
	 370 37 3 -5.666081298480783 -1.006995256286554 2.85586552167935 0 0 0 
	 371 38 1 -1.6940580521721094 -1.9797605406152774 3.3657102622916044 0 0 0 
	 372 38 2 -2.100322396396315 -2.556613703639802 2.7147189329171826 0 0 0 
	 373 38 2 -2.506586740620521 -3.1334668666643264 2.0637276035427607 0 0 0 
	 375 38 2 -1.3409224396597224 -1.1280219364730157 3.098434020569126 0 0 0 
	 376 38 2 -0.9877868271473353 -0.2762833323307541 2.8311577788466478 0 0 0 
	 378 38 2 -1.6409293204602906 -2.254645981733014 4.283977833388505 0 0 0 
	 379 38 2 -1.5878005887484716 -2.529531422850751 5.202245404485405 0 0 0 
	 374 38 4 -2.7435742747513077 -3.4699645450952996 1.6839826614076812 0 0 0 
	 377 38 4 -0.7817910531817763 0.22056418675223166 2.6752466378418687 0 0 0 
	 380 38 4 -1.556808828583244 -2.6898812635027642 5.737901487625263 0 0 0 
	 381 39 1 -14.32663502460832 12.867909178875097 -11.004615750869768 0 0 0 
	 382 39 2 -15.170458523636462 12.52849197497941 -10.6974384988026 0 0 0 
	 383 39 2 -16.014282022664606 12.189074771083725 -10.39026124673543 0 0 0 
	 385 39 2 -13.677151104381576 12.26978887655355 -11.381474797885598 0 0 0 
	 386 39 2 -13.02766718415483 11.671668574232003 -11.758333844901427 0 0 0 
	 388 39 2 -14.132295445806923 13.80544668509233 -10.934933955921107 0 0 0 
	 389 39 2 -13.937955867005526 14.742984191309564 -10.865252160972446 0 0 0 
	 384 39 3 -16.506512397097687 11.991081402144575 -10.211074516362913 0 0 0 
	 387 39 3 -12.648801564022563 11.322765064544434 -11.978168288993995 0 0 0 
	 390 39 3 -13.824591112704711 15.289881069936282 -10.824604447252392 0 0 0 
	 391 40 1 -20.03680418038682 -23.568416960526516 -8.095062325651037 0 0 0 
	 392 40 2 -20.936566141615547 -23.86547489050757 -8.2492861868438 0 0 0 
	 393 40 2 -21.836328102844277 -24.16253282048862 -8.403510048036562 0 0 0 
	 395 40 2 -19.78693653147927 -23.21995700813474 -7.23614334250505 0 0 0 
	 396 40 2 -19.537068882571724 -22.871497055742967 -6.377224359359063 0 0 0 
	 398 40 2 -19.38690986806564 -23.619818982937236 -8.79975744760426 0 0 0 