LAMMPS FENE chain data file 

10  atoms          
9  bonds          
9  angles         
0  dihedrals      
0  impropers    

4  atom types     
2  bond types     
2  angle types    
0  dihedral types 
0  improper types 

-3.000000 3.000000 xlo xhi  
-3.000000 3.000000 ylo yhi  
-3.000000 3.000000 zlo zhi  

Masses

	 1 1.0 
	 2 1.0 
	 3 1.0 
	 4 1.0 

Atoms 

	 1 1 1 -0.21595157902230477 0.8639521714399563 0.2680074111063844 0 0 0 
	 2 1 2 -0.1301754320438236 0.5904065882988117 -0.6481886741032704 0 0 0 
	 3 1 2 -0.04439928506534241 0.31686100515766713 -1.5643847593129252 0 0 0 
	 5 1 2 0.2081576276108582 1.6705701288825558 0.5698332741137109 0 0 0 
	 6 1 2 0.6322668342440212 2.477188086325156 0.8716591371210373 0 0 0 
	 8 1 2 -0.7258369326339488 0.3308797971385016 0.8823776333087128 0 0 0 
	 9 1 2 -1.2357222862455928 -0.20219257716295314 1.4967478555110412 0 0 0 
	 4 1 3 0.005636800672104952 0.1572927483253328 -2.098832475685224 0 0 0 
	 7 1 3 0.8796638714466996 2.9477152281666723 1.047724223875311 0 0 0 
	 10 1 3 -1.5331554091857182 -0.5131514621721351 1.8551304851290658 0 0 0 


Bonds 

	 1 1 1 2 
	 2 1 2 3 
	 3 1 1 5 
	 4 1 5 6 
	 5 1 1 8 
	 6 1 8 9 
	 7 2 3 4 
	 8 2 6 7 
	 9 2 9 10 


Angles 

	 1 1 2 1 5 
	 2 1 5 1 8 
	 3 1 8 1 2 
	 4 2 1 2 3 
	 5 2 2 3 4 
	 6 2 1 5 6 
	 7 2 5 6 7 
	 8 2 1 8 9 
	 9 2 8 9 10 
