LAMMPS FENE chain data file 

3000  atoms          
2700  bonds          
2700  angles         
0  dihedrals      
0  impropers    

4  atom types     
2  bond types     
2  angle types    
0  dihedral types 
0  improper types 

-15.000000 15.000000 xlo xhi  
-15.000000 15.000000 ylo yhi  
-15.000000 15.000000 zlo zhi  

Masses

	 1 1.0 
	 2 1.0 
	 3 1.0 
	 4 1.0 

Atoms 

	 1 1 1 0.01064564021415082 -7.8128052090048214 2.8763704157374526 0 0 0 
	 2 1 2 0.8229747009412289 -7.870817575578165 2.368083034010517 0 0 0 
	 3 1 2 1.635303761668307 -7.928829942151509 1.8597956522835817 0 0 0 
	 5 1 2 0.04352645273196177 -7.815521744150852 3.835803306879386 0 0 0 
	 6 1 2 0.07640726524977272 -7.8182382792968825 4.795236198021319 0 0 0 
	 8 1 2 -0.8345642330307379 -7.7520763072854475 2.425224906322455 0 0 0 
	 9 1 2 -1.6797741062756266 -7.691347405566073 1.9740793969074573 0 0 0 
	 4 1 3 2.1091623804257695 -7.962670489319293 1.563294679609536 0 0 0 
	 7 1 3 0.0955877392184956 -7.819822924798734 5.35490538452078 0 0 0 
	 10 1 3 -2.1728131990018116 -7.655922212896438 1.710911183082042 0 0 0 
	 11 2 1 -4.492675709634144 6.910603346134788 -5.032224182716449 0 0 0 
	 12 2 2 -3.96112379915079 7.394905958997928 -5.668230114792112 0 0 0 
	 13 2 2 -3.4295718886674367 7.879208571861068 -6.304236046867775 0 0 0 
	 15 2 2 -4.851573716762087 6.0505292682079865 -5.2625821670754735 0 0 0 
	 16 2 2 -5.210471723890031 5.190455190281185 -5.492940151434499 0 0 0 
	 18 2 2 -4.665329612989554 7.28637481119845 -4.165860266281762 0 0 0 
	 19 2 2 -4.837983516344964 7.662146276262112 -3.299496349847075 0 0 0 
	 14 2 4 -3.119499940885481 8.161718429364566 -6.675239507245245 0 0 0 
	 17 2 4 -5.419828894714664 4.6887453114905515 -5.627315642310596 0 0 0 
	 20 2 4 -4.938698293302286 7.881346297549248 -2.7941173985935075 0 0 0 
	 21 3 1 -11.7342873197337 -0.3924334046094913 8.90132476926042 0 0 0 
	 22 3 2 -11.126877782776303 0.3501279206876433 8.865879987046887 0 0 0 
	 23 3 2 -10.519468245818906 1.092689245984778 8.830435204833353 0 0 0 
	 25 3 2 -11.821447227370285 -0.9031135034582701 9.709538223207199 0 0 0 
	 26 3 2 -11.908607135006871 -1.413793602307049 10.517751677153978 0 0 0 
	 28 3 2 -12.25453694905451 -0.6243146310578472 8.128556097527174 0 0 0 
	 29 3 2 -12.77478657837532 -0.8561958575062032 7.3557874257939275 0 0 0 
	 24 3 3 -10.165146015927093 1.5258500190747732 8.809759081875459 0 0 0 
	 27 3 3 -11.959450414461546 -1.711690326635503 10.9892095252896 0 0 0 
	 30 3 3 -13.078265528812459 -0.9914599062677442 6.9050057006162 0 0 0 
	 31 4 1 -11.53558854579433 -5.824755944144306 8.14214683773158 0 0 0 
	 32 4 2 -11.839192613135676 -4.950446490064483 7.887181058066091 0 0 0 
	 33 4 2 -12.142796680477025 -4.07613703598466 7.6322152784006 0 0 0 
	 35 4 2 -10.67399072725948 -5.93326928222965 8.551382777689891 0 0 0 
	 36 4 2 -9.812392908724627 -6.0417826203149945 8.9606187176482 0 0 0 
	 38 4 2 -12.093582296987833 -6.590552060138786 7.98787667743876 0 0 0 
	 39 4 2 -12.651576048181335 -7.356348176133266 7.83360651714594 0 0 0 
	 34 4 4 -12.319899053092811 -3.566123187771429 7.4834852402623975 0 0 0 
	 37 4 4 -9.309794181245966 -6.105082067531445 9.199339682623883 0 0 0 
	 40 4 4 -12.977072403044211 -7.803062577130046 7.743615590308462 0 0 0 
	 41 5 1 1.546415922099571 -2.3616775393413514 10.968399268624184 0 0 0 
	 42 5 2 1.8704224824645195 -2.7439154258410055 11.787248428704814 0 0 0 
	 43 5 2 2.194429042829468 -3.126153312340659 12.606097588785444 0 0 0 
	 45 5 2 0.7352748718217804 -2.689799076802989 10.57344806504575 0 0 0 
	 46 5 2 -0.07586617845601018 -3.017920614264627 10.178496861467316 0 0 0 
	 48 5 2 2.0335504120124126 -1.6513181153800598 10.544501312121989 0 0 0 
	 49 5 2 2.5206849019252546 -0.9409586914187682 10.120603355619792 0 0 0 
	 44 5 3 2.3834328697090212 -3.3491254127987906 13.083759598832478 0 0 0 
	 47 5 3 -0.5490317911180544 -3.209324844450583 9.948108659379896 0 0 0 
	 50 5 3 2.804846687707746 -0.5265823607746813 9.873329547660179 0 0 0 
	 51 6 1 -8.71261044739702 -2.7035355749681464 -4.9518534579440745 0 0 0 
	 52 6 2 -9.486244541274337 -2.175545072179052 -4.741339045717396 0 0 0 
	 53 6 2 -10.259878635151653 -1.6475545693899578 -4.530824633490718 0 0 0 
	 55 6 2 -8.013954328550591 -2.3350387037062115 -5.497462918518768 0 0 0 
	 56 6 2 -7.31529820970416 -1.966541832444277 -6.043072379093462 0 0 0 
	 58 6 2 -8.637632472366134 -3.6000229490191753 -4.616758409596059 0 0 0 
	 59 6 2 -8.562654497335249 -4.496510323070204 -4.281663361248045 0 0 0 
	 54 6 4 -10.71116518991342 -1.3395601094296528 -4.408024559691822 0 0 0 
	 57 6 4 -6.907748807043744 -1.7515853242081485 -6.3613445644287 0 0 0 
	 60 6 4 -8.518917345233898 -5.019461291266637 -4.086191249711702 0 0 0 
	 61 7 1 12.871585127403971 -12.299443256625409 -12.082231907781496 0 0 0 
	 62 7 2 13.053626586976135 -12.973780133886244 -11.42364957962279 0 0 0 
	 63 7 2 13.235668046548298 -13.648117011147077 -10.765067251464082 0 0 0 
	 65 7 2 12.616035725796445 -11.416040354358824 -11.80674358569686 0 0 0 
	 66 7 2 12.36048632418892 -10.532637452092237 -11.531255263612225 0 0 0 
	 68 7 2 12.945093069439334 -12.50850928163116 -13.016302558024838 0 0 0 
	 69 7 2 13.018601011474697 -12.717575306636911 -13.95037320826818 0 0 0 
	 64 7 3 13.341858897965393 -14.041480189549231 -10.380894226704836 0 0 0 
	 67 7 3 12.211415839917862 -10.017319092436729 -11.370553742396188 0 0 0 
	 70 7 3 13.06148064432866 -12.839530487890267 -14.495247754243463 0 0 0 
	 71 8 1 -5.638196844320605 3.1003678295816153 -13.112694469719756 0 0 0 
	 72 8 2 -5.603125295443843 2.3710126491109293 -12.489468180816633 0 0 0 
	 73 8 2 -5.568053746567081 1.6416574686402434 -11.86624189191351 0 0 0 
	 75 8 2 -6.443825727449959 3.2721540020469924 -13.605697120440263 0 0 0 
	 76 8 2 -7.249454610579313 3.44394017451237 -14.098699771160769 0 0 0 
	 78 8 2 -4.867639510068014 3.6579368375869237 -13.242918107902371 0 0 0 
	 79 8 2 -4.097082175815423 4.215505845592233 -13.373141746084988 0 0 0 
	 74 8 4 -5.547595343055636 1.2162002800323433 -11.50269322338669 0 0 0 
	 77 8 4 -7.719404792404768 3.5441487751171734 -14.386284650747731 0 0 0 
	 80 8 4 -3.647590397501412 4.540754433595329 -13.449105535024847 0 0 0 
	 81 9 1 1.0003712910243656 8.054538777155734 -8.453328362147298 0 0 0 
	 82 9 2 0.15106756839860225 8.502047646236255 -8.457687126684888 0 0 0 
	 83 9 2 -0.6982361542271611 8.949556515316775 -8.46204589122248 0 0 0 
	 85 9 2 1.8125955685255866 8.566265712151582 -8.458550147031396 0 0 0 
	 86 9 2 2.6248198460268073 9.077992647147429 -8.463771931915492 0 0 0 
	 88 9 2 1.0374507361489083 7.0953029730793675 -8.44374781272561 0 0 0 
	 89 9 2 1.074530181273451 6.136067169003001 -8.434167263303921 0 0 0 
	 84 9 3 -1.1936633257588565 9.210603355613745 -8.464588503869408 0 0 0 
	 87 9 3 3.0986173412358538 9.376500025895005 -8.466817973097882 0 0 0 
	 90 9 3 1.0961598575961007 5.5765129499584525 -8.428578609474602 0 0 0 
	 91 10 1 -5.6769528547902075 -1.317962233870618 3.8469411139417007 0 0 0 
	 92 10 2 -5.622295267575311 -2.0567921265684705 4.4574678847027585 0 0 0 
	 93 10 2 -5.5676376803604155 -2.795622019266324 5.067994655463815 0 0 0 
	 95 10 2 -4.974135383553148 -0.6645711497440039 3.81996532279865 0 0 0 
	 96 10 2 -4.271317912316089 -0.011180065617389712 3.792989531655599 0 0 0 
	 98 10 2 -6.4344279132421605 -1.232523425299377 3.2633901343236955 0 0 0 
	 99 10 2 -7.191902971694116 -1.1470846167281379 2.6798391547056895 0 0 0 
	 94 10 4 -5.535754087818393 -3.2266061233400714 5.424135271741099 0 0 0 
	 97 10 4 -3.8613410540944715 0.36996473345646774 3.777253653488819 0 0 0 
	 100 10 4 -7.633763422457757 -1.0972453117282486 2.3394344165951857 0 0 0 
	 101 11 1 12.247634646863666 11.773983033716128 5.3159665330318475 0 0 0 
	 102 11 2 12.818827583556377 11.221193925878888 4.777670302942071 0 0 0 
	 103 11 2 13.390020520249086 10.668404818041648 4.239374072852295 0 0 0 
	 105 11 2 11.750984609857676 12.488767405150494 4.910970183548142 0 0 0 
	 106 11 2 11.254334572851686 13.20355177658486 4.505973834064436 0 0 0 
	 108 11 2 12.173091747176946 11.611987770119002 6.25925911260533 0 0 0 
	 109 11 2 12.098548847490225 11.449992506521877 7.202551692178811 0 0 0 
	 104 11 3 13.723216399986502 10.345944505136591 3.9253679386332583 0 0 0 
	 107 11 3 10.96462205126486 13.62050932658824 4.2697259635322755 0 0 0 
	 110 11 3 12.055065489339638 11.355495269423553 7.752805696930007 0 0 0 
	 111 12 1 7.173534912522732 7.588811582833401 7.7959915838193545 0 0 0 
	 112 12 2 6.256650625768611 7.6127938200166145 8.079448912183032 0 0 0 
	 113 12 2 5.3397663390144885 7.636776057199828 8.36290624054671 0 0 0 
	 115 12 2 7.542757141710779 6.780387693042651 7.433051148087811 0 0 0 
	 116 12 2 7.911979370898826 5.971963803251901 7.070110712356268 0 0 0 
	 118 12 2 7.721196970088807 8.373253235440936 7.87547469118722 0 0 0 
	 119 12 2 8.268859027654882 9.157694888048471 7.9549577985550854 0 0 0 
	 114 12 4 4.804917171741251 7.650765695556703 8.528256348758855 0 0 0 
	 117 12 4 8.127359004591854 5.500383200873964 6.858395458179533 0 0 0 
	 120 12 4 8.588328561235091 9.615285852069535 8.001322944519675 0 0 0 
	 121 13 1 1.6988938371628215 -4.3930493875067995 -5.950658728849792 0 0 0 
	 122 13 2 1.0269361561948016 -3.8869215507165515 -5.488157390674317 0 0 0 
	 123 13 2 0.3549784752267817 -3.380793713926304 -5.025656052498842 0 0 0 
	 125 13 2 2.3376443190628655 -3.9446194425939765 -6.509683242067186 0 0 0 
	 126 13 2 2.9763948009629093 -3.496189497681154 -7.068707755284579 0 0 0 
	 128 13 2 1.7321010362307976 -5.34760716920987 -5.854135553807874 0 0 0 
	 129 13 2 1.7653082352987737 -6.302164950912941 -5.7576123787659546 0 0 0 
	 124 13 3 -0.03699683867123005 -3.08555247579866 -4.755863605229815 0 0 0 
	 127 13 3 3.348999248737935 -3.234605363148674 -7.394805387994725 0 0 0 
	 130 13 3 1.7846791014217596 -6.858990323573065 -5.701307193324835 0 0 0 
	 131 14 1 6.327184665236832 -12.665926285223058 -11.053831969862127 0 0 0 
	 132 14 2 6.773524274843709 -12.665982462925058 -11.903761937412423 0 0 0 
	 133 14 2 7.219863884450586 -12.666038640627058 -12.753691904962718 0 0 0 
	 135 14 2 6.508382002974288 -11.971194684265283 -10.416560028358735 0 0 0 
	 136 14 2 6.689579340711743 -11.276463083307508 -9.77928808685534 0 0 0 
	 138 14 2 5.699647717892499 -13.360601708478834 -10.841173943815225 0 0 0 
	 139 14 2 5.072110770548166 -14.05527713173461 -10.628515917768322 0 0 0 
	 134 14 4 7.480228656721264 -12.666071410953224 -13.249484386033725 0 0 0 
	 137 14 4 6.79527778772526 -10.871202982748805 -9.407546120978362 0 0 0 
	 140 14 4 4.706047551263973 -14.460504461967146 -10.504465402574295 0 0 0 
	 141 15 1 -1.2341866741509007 -4.495894940480979 -9.915112901260873 0 0 0 
	 142 15 2 -0.598750467472593 -5.058648462478319 -10.36358731605159 0 0 0 
	 143 15 2 0.036685739205713386 -5.621401984475655 -10.812061730842306 0 0 0 
	 145 15 2 -1.024143504974202 -3.574511688251672 -9.746190523839903 0 0 0 
	 146 15 2 -0.8141003357975043 -2.6531284360223637 -9.577268146418932 0 0 0 
	 148 15 2 -2.079666050005906 -4.85452467071295 -9.635560863891126 0 0 0 
	 149 15 2 -2.92514542586091 -5.213154400944919 -9.356008826521379 0 0 0 
	 144 15 3 0.407356859768059 -5.949674872307437 -11.073671806136893 0 0 0 
	 147 15 3 -0.6915751537777637 -2.115654872221934 -9.478730092923367 0 0 0 
	 150 15 3 -3.4183417284429956 -5.422355076913568 -9.192936804722358 0 0 0 
	 151 16 1 5.995242270969998 11.228540782449526 1.9506885057464074 0 0 0 
	 152 16 2 6.030099972501059 11.71228800177236 2.779165161085228 0 0 0 
	 153 16 2 6.064957674032121 12.19603522109519 3.6076418164240485 0 0 0 
	 155 16 2 5.219325068882155 10.70754090494825 1.7313448868562553 0 0 0 
	 156 16 2 4.443407866794312 10.186541027446973 1.5120012679661032 0 0 0 
	 158 16 2 6.736301771526779 11.26579344062797 1.341555469297739 0 0 0 
	 159 16 2 7.4773612720835585 11.303046098806416 0.7324224328490707 0 0 0 
	 154 16 4 6.085291333258574 12.47822109903351 4.090919865371694 0 0 0 
	 157 16 4 3.9907894989097374 9.882624432237893 1.3840508236135145 0 0 0 
	 160 16 4 7.909645980741681 11.324776816077174 0.37709482825401386 0 0 0 
	 161 17 1 11.438982242021698 6.658233831593301 -10.652294092059302 0 0 0 
	 162 17 2 11.326711412906292 6.492140679672665 -9.713460599998644 0 0 0 
	 163 17 2 11.214440583790887 6.32604752775203 -8.774627107937988 0 0 0 
	 165 17 2 11.034893383003496 7.430424964952241 -11.054827379601093 0 0 0 
	 166 17 2 10.630804523985294 8.20261609831118 -11.457360667142886 0 0 0 
	 168 17 2 11.955341930155306 6.052135850154997 -11.188594296578167 0 0 0 
	 169 17 2 12.471701618288913 5.446037868716694 -11.724894501097033 0 0 0 
	 164 17 3 11.1489492668069 6.229159855798325 -8.226974237569271 0 0 0 
	 167 17 3 10.395086022891341 8.653060926103896 -11.692171751542265 0 0 0 
	 170 17 3 12.77291143636685 5.092480712877682 -12.03773628706637 0 0 0 
	 171 18 1 10.940868488960685 2.17478965182743 4.06485366403829 0 0 0 
	 172 18 2 10.976463563069027 2.005983296956285 5.0092250979848805 0 0 0 
	 173 18 2 11.012058637177368 1.8371769420851405 5.9535965319314705 0 0 0 
	 175 18 2 10.264411025889846 2.7537108470452076 3.7058891109367558 0 0 0 
	 176 18 2 9.587953562819008 3.3326320422629854 3.346924557835221 0 0 0 
	 178 18 2 11.581730877923182 1.7646748114807973 3.479446783193235 0 0 0 
	 179 18 2 12.22259326688568 1.3545599711341647 2.894039902348179 0 0 0 
	 174 18 4 11.032822430407235 1.738706568410306 6.504479868400315 0 0 0 
	 177 18 4 9.193353376027686 3.6703360728066885 3.137528568525993 0 0 0 
	 180 18 4 12.596429660447136 1.1153263142652956 2.5525525551885635 0 0 0 
	 181 19 1 -8.51221717046695 -6.313744068465185 -10.403937179310603 0 0 0 
	 182 19 2 -8.082995663820398 -5.458258284361434 -10.329687792589548 0 0 0 
	 183 19 2 -7.653774157173846 -4.602772500257682 -10.25543840586849 0 0 0 
	 185 19 2 -7.9921511128980205 -7.118477681366209 -10.34448040482715 0 0 0 
	 186 19 2 -7.4720850553290905 -7.923211294267233 -10.2850236303437 0 0 0 
	 188 19 2 -9.461504734682432 -6.364496239667914 -10.53764334051511 0 0 0 
	 189 19 2 -10.410792298897915 -6.415248410870642 -10.671349501719618 0 0 0 
	 184 19 3 -7.403394944963356 -4.10373912619716 -10.212126263614543 0 0 0 
	 187 19 3 -7.168713188413882 -8.392639235126163 -10.25034051189502 0 0 0 
	 190 19 3 -10.964543378023613 -6.444853844072233 -10.749344762422247 0 0 0 
	 191 20 1 -3.565930380215836 -10.024271280361976 -11.200149229931064 0 0 0 
	 192 20 2 -3.737049468797973 -10.960343821257956 -11.32698162210027 0 0 0 
	 193 20 2 -3.908168557380111 -11.896416362153936 -11.453814014269474 0 0 0 
	 195 20 2 -2.675299507094649 -9.720573546603344 -11.010032596378755 0 0 0 
	 196 20 2 -1.7846686339734619 -9.416875812844712 -10.819915962826444 0 0 0 
	 198 20 2 -4.285442164754885 -9.391896473224628 -11.263433471314169 0 0 0 
	 199 20 2 -5.004953949293935 -8.75952166608728 -11.326717712697274 0 0 0 
	 194 20 4 -4.0079880257196905 -12.44245867767659 -11.527799576368178 0 0 0 
	 197 20 4 -1.265133957986103 -9.239718801485509 -10.709014593254263 0 0 0 
	 200 20 4 -5.424669156941713 -8.390636361923828 -11.363633520170751 0 0 0 
	 201 21 1 -13.723705625164962 11.370281007312522 2.6980614770867275 0 0 0 
	 202 21 2 -13.019923024391517 11.037219087709945 2.1364924176121067 0 0 0 
	 203 21 2 -12.316140423618071 10.704157168107367 1.574923358137486 0 0 0 
	 205 21 2 -14.18449665014049 12.178620568876553 2.4617168462772385 0 0 0 
	 206 21 2 -14.645287675116018 12.986960130440583 2.225372215467749 0 0 0 
	 208 21 2 -13.96669720096288 10.895003365351071 3.4959751673708372 0 0 0 
	 209 21 2 -14.209688776760798 10.419725723389618 4.293888857654947 0 0 0 
	 204 21 3 -11.905600573166893 10.509871048339196 1.24734140677729 0 0 0 
	 207 21 3 -14.914082439685076 13.458491541352933 2.087504514162214 0 0 0 
	 210 21 3 -14.351433862642917 10.142480432245438 4.759338510320678 0 0 0 
	 211 22 1 -9.26896053599133 7.03630316416407 3.175401867457781 0 0 0 
	 212 22 2 -9.66232688336295 7.6543981351534525 2.555062022217172 0 0 0 
	 213 22 2 -10.055693230734569 8.272493106142836 1.9347221769765612 0 0 0 
	 215 22 2 -9.245892300174054 7.245512154168377 4.112044518097636 0 0 0 
	 216 22 2 -9.22282406435678 7.454721144172687 5.0486871687374935 0 0 0 
	 218 22 2 -8.898662424436981 6.208999203170379 2.8590990620585344 0 0 0 
	 219 22 2 -8.528364312882635 5.381695242176688 2.5427962566592894 0 0 0 
	 214 22 4 -10.285156933368016 8.63304850588664 1.5728572672528713 0 0 0 
	 217 22 4 -9.209367593463373 7.576759721675201 5.59506204827741 0 0 0 
	 220 22 4 -8.312357081142597 4.899101264930367 2.3582862868430623 0 0 0 
	 221 23 1 2.462024462271158 4.177240836495633 -7.630403723379297 0 0 0 
	 222 23 2 2.9820047586329665 4.237189508807117 -8.435156261793175 0 0 0 
	 223 23 2 3.5019850549947744 4.2971381811186005 -9.23990880020705 0 0 0 
	 225 23 2 2.840858827239649 4.4529000524280375 -6.7924917228742 0 0 0 
	 226 23 2 3.2196931922081395 4.72855926836044 -5.954579722369103 0 0 0 
	 228 23 2 1.5632098009408584 3.8416329482517475 -7.663563185470517 0 0 0 
	 229 23 2 0.6643951396105593 3.506025060007862 -7.696722647561737 0 0 0 
	 224 23 3 3.8053068945391626 4.332108239966965 -9.709347780948475 0 0 0 
	 227 23 3 3.4406799051064256 4.889360477654342 -5.4657977220744645 0 0 0 
	 230 23 3 0.14008658716788558 3.310253791865594 -7.716065667114952 0 0 0 
	 231 24 1 -5.780998839670381 -3.7991667256427295 11.905853072465693 0 0 0 
	 232 24 2 -5.785821279088385 -4.4401261548775075 11.191186888745568 0 0 0 
	 233 24 2 -5.790643718506388 -5.0810855841122855 10.476520705025443 0 0 0 
	 235 24 2 -6.539707033873741 -3.7251453489414486 12.489362037126838 0 0 0 
	 236 24 2 -7.298415228077101 -3.6511239722401676 13.072871001787986 0 0 0 
	 238 24 2 -5.017468206049017 -3.2322286731092325 12.037010291524672 0 0 0 
	 239 24 2 -4.253937572427654 -2.665290620575736 12.168167510583649 0 0 0 
	 234 24 4 -5.79345680816689 -5.454978584499239 10.05963209785537 0 0 0 
	 237 24 4 -7.740995008029061 -3.607944835831087 13.413251231173655 0 0 0 
	 240 24 4 -3.808544702815192 -2.334576756597863 12.244675888368054 0 0 0 
	 241 25 1 12.92562848640898 10.373180234040035 11.51351818495866 0 0 0 
	 242 25 2 13.210691666626987 9.850034002677077 10.760751950397935 0 0 0 
	 243 25 2 13.495754846844996 9.32688777131412 10.007985715837211 0 0 0 
	 245 25 2 12.960751483326774 10.000886460497137 12.397692218319005 0 0 0 
	 246 25 2 12.995874480244568 9.628592686954239 13.28186625167935 0 0 0 
	 248 25 2 12.60544230927318 11.268620238945891 11.382110386159038 0 0 0 
	 249 25 2 12.285256132137379 12.164060243851747 11.250702587359417 0 0 0 
	 244 25 3 13.662041701972166 9.021719136352393 9.568872079010124 0 0 0 
	 247 25 3 13.01636289511328 9.411421319054215 13.797634437806218 0 0 0 
	 250 25 3 12.098480862141495 12.686400246713497 11.174048038059636 0 0 0 
	 251 26 1 -3.0277274312542457 7.517229923615451 -11.898970589393189 0 0 0 
	 252 26 2 -3.477394245726766 7.486049207450939 -11.05136955181619 0 0 0 
	 253 26 2 -3.9270610601992857 7.454868491286426 -10.203768514239192 0 0 0 
	 255 26 2 -3.524642181438603 7.392506632988728 -12.710832543067864 0 0 0 
	 256 26 2 -4.0215569316229605 7.267783342362006 -13.522694496742538 0 0 0 
	 258 26 2 -2.0811458665973688 7.673133930406686 -11.934709673295513 0 0 0 
	 259 26 2 -1.1345643019404918 7.8290379371979215 -11.970448757197836 0 0 0 
	 254 26 4 -4.189366701974922 7.436679740190461 -9.709334575652608 0 0 0 
	 257 26 4 -4.311423869230501 7.195028089496418 -13.9962806363861 0 0 0 
	 260 26 4 -0.5823917225573139 7.919981941159475 -11.991296556140858 0 0 0 
	 261 27 1 -0.22081079157009853 -12.792583334931352 -5.928530345448761 0 0 0 
	 262 27 2 -0.43645454996484934 -13.617033632639535 -6.370547851973419 0 0 0 
	 263 27 2 -0.6520983083596001 -14.441483930347717 -6.812565358498078 0 0 0 
	 265 27 2 0.16429182409044252 -12.067579634626977 -6.426190480436859 0 0 0 
	 266 27 2 0.5493944397509836 -11.342575934322602 -6.923850615424959 0 0 0 
	 268 27 2 -0.39026964883588866 -12.693136737527546 -4.988852703936003 0 0 0 
	 269 27 2 -0.5597285061016788 -12.593690140123739 -4.049175062423247 0 0 0 
	 264 27 3 -0.7778905007565381 -14.92241327067749 -7.070408903970796 0 0 0 
	 267 27 3 0.7740376322196326 -10.91965710914505 -7.2141523608346825 0 0 0 
	 270 27 3 -0.6585795061733899 -12.535679624971518 -3.5010297715408045 0 0 0 
	 271 28 1 9.175063136121487 2.6210638173074763 12.123236708942741 0 0 0 
	 272 28 2 8.853307777563908 1.7391574913486914 12.32402197103476 0 0 0 
	 273 28 2 8.531552419006328 0.8572511653899064 12.52480723312678 0 0 0 
	 275 28 2 9.203004274661177 2.9262448935142604 11.213465417077376 0 0 0 
	 276 28 2 9.230945413200866 3.2314259697210446 10.303694125212012 0 0 0 
	 278 28 2 9.468877356139377 3.197789067059477 12.832222738716087 0 0 0 
	 279 28 2 9.762691576157266 3.7745143168114774 13.541208768489431 0 0 0 
	 274 28 4 8.343861793181073 0.34280580858061516 12.641931969347123 0 0 0 
	 277 28 4 9.247244410682352 3.409448264175002 9.772994204957216 0 0 0 
	 280 28 4 9.934083204501036 4.110937379166812 13.954783952523883 0 0 0 
	 281 29 1 8.677798542835243 12.300288874757166 13.050204557188666 0 0 0 
	 282 29 2 9.56633463736389 12.614911832051208 12.868226527022024 0 0 0 
	 283 29 2 10.454870731892537 12.929534789345247 12.686248496855383 0 0 0 
	 285 29 2 8.524332428111936 11.368282460940362 13.221704400442448 0 0 0 
	 286 29 2 8.37086631338863 10.436276047123558 13.39320424369623 0 0 0 
	 288 29 2 7.9427285630299025 12.91767233127993 13.060682744101525 0 0 0 
	 289 29 2 7.207658583224561 13.535055787802694 13.071160931014385 0 0 0 
	 284 29 3 10.973183453700916 13.113064847766772 12.580094645924842 0 0 0 
	 287 29 3 8.281344413133368 9.892605639063754 13.493245818927605 0 0 0 
	 290 29 3 6.778867761671447 13.895196137440973 13.077273206713551 0 0 0 
	 291 30 1 -7.751584021803611 11.494935496143027 -0.4677982019531357 0 0 0 
	 292 30 2 -8.140175656493 11.749233275986041 0.3723977160423888 0 0 0 
	 293 30 2 -8.528767291182387 12.003531055829056 1.2125936340379133 0 0 0 
	 295 30 2 -7.828219126931594 10.58955518444156 -0.7776587380744299 0 0 0 
	 296 30 2 -7.904854232059578 9.68417487274009 -1.087519274195724 0 0 0 
	 298 30 2 -7.2863572819862386 12.14601802800148 -0.9981335838273662 0 0 0 
	 299 30 2 -6.821130542168867 12.797100559859933 -1.5284689657015966 0 0 0 
	 294 30 4 -8.755445744751198 12.151871427404147 1.7027079195353028 0 0 0 
	 297 30 4 -7.9495580433842346 9.156036357580902 -1.2682712535998122 0 0 0 
	 300 30 4 -6.5497482772754 13.17689870344403 -1.837831271794898 0 0 0 
	 301 31 1 4.857015104359304 6.521927583665359 -2.21145086141564 0 0 0 
	 302 31 2 4.686109272236922 6.623500190382302 -3.1506389161263444 0 0 0 
	 303 31 2 4.515203440114538 6.725072797099243 -4.089826970837051 0 0 0 
	 305 31 2 5.107030135878605 5.664672603191491 -1.8590216026031077 0 0 0 
	 306 31 2 5.3570451673979065 4.807417622717623 -1.5065923437905764 0 0 0 
	 308 31 2 4.777905904962387 7.2776099574222854 -1.624692065517464 0 0 0 
	 309 31 2 4.698796705565468 8.033292331179211 -1.0379332696192887 0 0 0 
	 304 31 3 4.415508371376482 6.784323484350795 -4.637686669418298 0 0 0 
	 307 31 3 5.502887269117499 4.3073522174412 -1.3010086094832651 0 0 0 
	 310 31 3 4.652649672583934 8.474107049204084 -0.6956573053453531 0 0 0 
	 311 32 1 9.68399913832734 4.109641788365263 -7.29438891361786 0 0 0 
	 312 32 2 8.805235908590738 4.293260746900626 -6.954301771653793 0 0 0 
	 313 32 2 7.926472678854143 4.4768797054359935 -6.614214629689728 0 0 0 
	 315 32 2 10.428141167761726 4.649518815826797 -7.01800976236261 0 0 0 
	 316 32 2 11.172283197196109 5.18939584328833 -6.741630611107356 0 0 0 
	 318 32 2 9.81862033862956 3.3861458023683695 -7.910855206837184 0 0 0 
	 319 32 2 9.95324153893177 2.6626498163714665 -8.527321500056502 0 0 0 
	 314 32 4 7.413860794841124 4.583990764581624 -6.415830463544024 0 0 0 
	 317 32 4 11.606366047699503 5.504324109307559 -6.580409439541796 0 0 0 
	 320 32 4 10.031770572441403 2.2406104912066116 -8.88692683776777 0 0 0 
	 321 33 1 -13.158837981654907 -6.6594713751922985 4.183974402803157 0 0 0 
	 322 33 2 -13.386677813668067 -6.2508331965252575 5.022248731340002 0 0 0 
	 323 33 2 -13.614517645681225 -5.842195017858217 5.860523059876847 0 0 0 
	 325 33 2 -12.402633764384849 -7.2480971452995675 4.126747795804277 0 0 0 
	 326 33 2 -11.646429547114792 -7.8367229154068365 4.069521188805396 0 0 0 
	 328 33 2 -13.687202366911805 -6.4794837837520705 3.4029266812651926 0 0 0 
	 329 33 2 -14.215566752168701 -6.299496192311842 2.6218789597272276 0 0 0 
	 324 33 3 -13.747424214355568 -5.60382274696911 6.349516418190008 0 0 0 
	 327 33 3 -11.205310420373925 -8.18008794796941 4.036139001389382 0 0 0 
	 330 33 3 -14.523779310235225 -6.194503430638376 2.1662677888300816 0 0 0 
	 331 34 1 12.080630169536605 5.810276409949079 10.833035392093832 0 0 0 
	 332 34 2 11.730853700091151 6.197741028237781 10.027350844025133 0 0 0 
	 333 34 2 11.381077230645696 6.585205646526481 9.221666295956434 0 0 0 
	 335 34 2 12.99015412021244 5.504559487695213 10.863091116917003 0 0 0 
	 336 34 2 13.899678070888273 5.198842565441346 10.893146841740176 0 0 0 
	 338 34 2 11.520882688306225 5.728528713914244 11.60866421533936 0 0 0 
	 339 34 2 10.961135207075845 5.64678101787941 12.384293038584888 0 0 0 
	 334 34 4 11.177040956802514 6.811226673861557 8.751683642916358 0 0 0 
	 337 34 4 14.43023370878251 5.02050769412659 10.910679347887026 0 0 0 
	 340 34 4 10.63461584302479 5.599094861859089 12.836743185478111 0 0 0 
	 341 35 1 -0.6193192422870641 8.18959057743108 4.332043859183598 0 0 0 
	 342 35 2 0.15695829878483614 8.39914439851479 4.856524912508292 0 0 0 
	 343 35 2 0.9332358398567364 8.6086982195985 5.381005965832986 0 0 0 
	 345 35 2 -0.6074706127981245 7.4364805244463215 3.736825531111849 0 0 0 
	 346 35 2 -0.5956219833091849 6.683370471461562 3.1416072030401 0 0 0 
	 348 35 2 -1.407445412847904 8.733146809332128 4.402781133930652 0 0 0 
	 349 35 2 -2.1955715834087437 9.276703041233176 4.473518408677706 0 0 0 
	 344 35 3 1.3860644054820117 8.730937948563998 5.6869532469390585 0 0 0 
	 347 35 3 -0.5887102827739703 6.24405627388712 2.794396511664913 0 0 0 
	 350 35 3 -2.655311849569233 9.59377750984212 4.514781818946822 0 0 0 
	 351 36 1 -1.5972895196035637 3.4733809629453978 6.161927404682045 0 0 0 
	 352 36 2 -0.8500735614628683 3.9808392509040336 6.487126417414207 0 0 0 
	 353 36 2 -0.10285760332217242 4.488297538862668 6.812325430146371 0 0 0 
	 355 36 2 -2.1327075989060935 3.81502877234586 5.442063351761039 0 0 0 
	 356 36 2 -2.6681256782086242 4.1566765817463205 4.722199298840035 0 0 0 
	 358 36 2 -1.8090873984417288 2.624274865586303 6.556592444870885 0 0 0 
	 359 36 2 -2.0208852772798935 1.775168768227207 6.9512574850597275 0 0 0 
	 354 36 4 0.3330183722598994 4.784314873505205 7.002024854240133 0 0 0 
	 357 36 4 -2.9804528911351005 4.355971137229923 4.302278601302781 0 0 0 
	 360 36 4 -2.14443403993549 1.2798568781010689 7.181478758503218 0 0 0 
	 361 37 1 -9.501819822670335 -10.458576376266691 -6.05433892284935 0 0 0 
	 362 37 2 -9.259974505997528 -11.346784504680306 -6.326730485536982 0 0 0 
	 363 37 2 -9.018129189324721 -12.234992633093924 -6.599122048224614 0 0 0 
	 365 37 2 -9.467823567759742 -9.736717954852162 -6.686291986047072 0 0 0 
	 366 37 2 -9.433827312849148 -9.014859533437637 -7.31824504924479 0 0 0 
	 368 37 2 -9.777661394253732 -10.292226669267603 -5.149994296963997 0 0 0 
	 369 37 2 -10.05350296583713 -10.12587696226851 -4.245649671078646 0 0 0 
	 364 37 3 -8.877052754598918 -12.753114041335204 -6.758017126459066 0 0 0 
	 367 37 3 -9.413996164151303 -8.593775454279164 -7.686884336110128 0 0 0 
	 370 37 3 -10.214410549260778 -10.028839633185708 -3.718115305978856 0 0 0 
	 371 38 1 -9.194463568679716 -2.683173027643444 -1.4872190570543586 0 0 0 
	 372 38 2 -10.102205254073514 -2.689916294997397 -1.7995643162529222 0 0 0 
	 373 38 2 -11.009946939467314 -2.69665956235135 -2.111909575451486 0 0 0 
	 375 38 2 -8.988513228241276 -2.9971069874714873 -0.6036864169442295 0 0 0 
	 376 38 2 -8.782562887802836 -3.3110409472995306 0.2798462231658996 0 0 0 
	 378 38 2 -8.492672223724355 -2.362495800461448 -2.0584064379659237 0 0 0 
	 379 38 2 -7.790880878768997 -2.0418185732794516 -2.629593818877489 0 0 0 
	 374 38 4 -11.539462922613698 -2.700593134974489 -2.294110976650648 0 0 0 
	 377 38 4 -8.662425189213746 -3.494169090532556 0.7952402632301414 0 0 0 
	 380 38 4 -7.381502594211703 -1.854756857423287 -2.962786457742569 0 0 0 
	 381 39 1 -10.325955117791013 -8.501752253675022 -1.9628000596961637 0 0 0 
	 382 39 2 -10.175664154853852 -9.444905461838642 -1.865462233595036 0 0 0 
	 383 39 2 -10.02537319191669 -10.38805867000226 -1.7681244074939082 0 0 0 
	 385 39 2 -10.634650512083995 -8.148823862643898 -2.80050448510317 0 0 0 
	 386 39 2 -10.943345906376976 -7.795895471612774 -3.6382089105101767 0 0 0 
	 388 39 2 -10.167550686435192 -7.911527436542526 -1.222433460390285 0 0 0 
	 389 39 2 -10.009146255079372 -7.32130261941003 -0.48206686108440655 0 0 0 
	 384 39 3 -9.93770346353668 -10.938231374764372 -1.7113440089349172 0 0 0 
	 387 39 3 -11.12341821971455 -7.590020576844619 -4.12686982533093 0 0 0 
	 390 39 3 -9.916743670121809 -6.977004809416075 -0.05018634482264428 0 0 0 
	 391 40 1 7.561856593994239 0.6376616492710969 0.4329313242444598 0 0 0 
	 392 40 2 6.848205153380399 0.12329955440656803 0.0485704824871767 0 0 0 
	 393 40 2 6.13455371276656 -0.39106254045795996 -0.33579035927010525 0 0 0 
	 395 40 2 7.865019721222401 1.437957104280069 -0.0020621274088021627 0 0 0 
	 396 40 2 8.168182848450568 2.2382525592890437 -0.4370555790620659 0 0 0 
	 398 40 2 7.972344907379909 0.35172828912665244 1.2522856176550041 0 0 0 
	 399 40 2 8.38283322076558 0.06579492898220796 2.0716399110655472 0 0 0 
	 394 40 4 5.718257039075155 -0.6911070957956011 -0.5600008502951862 0 0 0 
	 397 40 4 8.345028006000334 2.705091574710943 -0.6908017591931374 0 0 0 