LAMMPS FENE chain data file 

1000  atoms          
900  bonds          
900  angles         
0  dihedrals      
0  impropers    

4  atom types     
2  bond types     
2  angle types    
0  dihedral types 
0  improper types 

-12.000000 12.000000 xlo xhi  
-12.000000 12.000000 ylo yhi  
-12.000000 12.000000 zlo zhi  

Masses

	 1 1.0 
	 2 1.0 
	 3 1.0 
	 4 1.0 

Atoms 

	 1 1 1 8.617919142613047 -7.206440451764608 7.138420743291991 0 0 0 
	 2 1 2 9.524740164270025 -7.129914866891829 6.832774756011157 0 0 0 
	 3 1 2 10.431561185927002 -7.053389282019051 6.527128768730325 0 0 0 
	 5 1 2 8.152067348704298 -8.04165833687219 7.054795445035921 0 0 0 
	 6 1 2 7.68621555479555 -8.876876221979774 6.971170146779852 0 0 0 
	 8 1 2 8.176949914864819 -6.447748151529804 7.527692028828893 0 0 0 
	 9 1 2 7.73598068711659 -5.689055851294999 7.916963314365795 0 0 0 
	 4 1 3 10.960540115226905 -7.008749357509929 6.348835276149838 0 0 0 
	 7 1 3 7.4144686750154465 -9.364086654959198 6.9223887227971455 0 0 0 
	 10 1 3 7.47874863759679 -5.2464853428246965 8.144038230928988 0 0 0 
	 11 2 1 -5.6863938625839845 2.5081231151669767 2.0315993025081758 0 0 0 
	 12 2 2 -5.497971461457628 3.4311702549194365 1.8469889654504097 0 0 0 
	 13 2 2 -5.309549060331271 4.354217394671896 1.6623786283926436 0 0 0 
	 15 2 2 -5.185569236404014 2.0412562293363394 2.704510890108282 0 0 0 
	 16 2 2 -4.684744610224043 1.5743893435057021 3.3774224777083885 0 0 0 
	 18 2 2 -6.375640889890311 2.0519428612451542 1.5432980519658357 0 0 0 
	 19 2 2 -7.064887917196638 1.5957626073233317 1.0549968014234956 0 0 0 
	 14 2 4 -5.199635993007563 4.892661559527498 1.554689265108947 0 0 0 
	 17 2 4 -4.39259691161906 1.3020503267711638 3.769954237141784 0 0 0 
	 20 2 4 -7.466948683125329 1.3296574592022687 0.7701544052737972 0 0 0 
	 21 3 1 6.49004445029898 0.856249577928355 8.061824413102723 0 0 0 
	 22 3 2 6.3458248635249435 1.6033112123235609 8.647229935117583 0 0 0 
	 23 3 2 6.201605276750907 2.350372846718767 9.23263545713244 0 0 0 
	 25 3 2 5.79121178060533 0.5683401671036847 7.4699282474389825 0 0 0 
	 26 3 2 5.092379110911681 0.2804307562790145 6.878032081775243 0 0 0 
	 28 3 2 7.333096706766665 0.3970973543578192 8.068315056751604 0 0 0 
	 29 3 2 8.17614896323435 -0.062054869212716635 8.074805700400486 0 0 0 
	 24 3 3 6.117477184466053 2.7861588001159703 9.574122011641109 0 0 0 
	 27 3 3 4.684726720257053 0.11248359996462365 6.532759318471394 0 0 0 
	 30 3 3 8.667929446173833 -0.3298936662955292 8.078591909195666 0 0 0 
	 31 4 1 6.953538259163039 4.114288022659837 -0.22531850554572763 0 0 0 
	 32 4 2 7.3353285918974 4.994422107278495 -0.19067554200241804 0 0 0 
	 33 4 2 7.7171189246317615 5.8745561918971525 -0.15603257845910845 0 0 0 
	 35 4 2 7.293867234595407 3.4206733016874935 0.34448392278501627 0 0 0 
	 36 4 2 7.634196210027775 2.72705858071515 0.9142863511157602 0 0 0 
	 38 4 2 6.231418950996309 3.9277686590135223 -0.829763897419781 0 0 0 
	 39 4 2 5.50929964282958 3.741249295367208 -1.4342092892938343 0 0 0 
	 34 4 4 7.939829952060139 6.387967741258035 -0.13582418305884425 0 0 0 
	 37 4 4 7.832721445696656 2.3224499934812837 1.246671100975361 0 0 0 
	 40 4 4 5.088063379732322 3.6324463332401913 -1.7868024345536986 0 0 0 
	 41 5 1 -9.498016903024304 3.268370829112886 8.199963411543202 0 0 0 
	 42 5 2 -8.87914230505539 2.6652925634804068 7.781763892759958 0 0 0 
	 43 5 2 -8.260267707086477 2.0622142978479276 7.363564373976714 0 0 0 
	 45 5 2 -9.434530661219986 4.21196484372352 8.035039693744489 0 0 0 
	 46 5 2 -9.371044419415668 5.155558858334155 7.870115975945775 0 0 0 
	 48 5 2 -10.180377742797535 2.927855080134731 8.783086648125158 0 0 0 
	 49 5 2 -10.862738582570767 2.587339331156576 9.366209884707114 0 0 0 
	 44 5 3 -7.899257524937944 1.7104186428956485 7.1196146546864885 0 0 0 
	 47 5 3 -9.33401077836315 5.705988700190358 7.773910473896526 0 0 0 
	 50 5 3 -11.260782405771819 2.388705144252652 9.70636510604659 0 0 0 
	 51 6 1 1.14151405756449 -7.3732181540209085 -2.2976387697454728 0 0 0 
	 52 6 2 1.1656212370940295 -8.327641785325405 -2.398109541130341 0 0 0 
	 53 6 2 1.189728416623569 -9.2820654166299 -2.498580312515209 0 0 0 
	 55 6 2 0.29971994645828826 -6.921751190413837 -2.2019295472100713 0 0 0 
	 56 6 2 -0.5420741646479135 -6.470284226806766 -2.10622032467467 0 0 0 
	 58 6 2 1.9592009891411517 -6.870261486323484 -2.292877220896006 0 0 0 
	 59 6 2 2.7768879207178134 -6.367304818626059 -2.2881156720465397 0 0 0 
	 54 6 4 1.2037909380158005 -9.838812534890856 -2.5571882624897153 0 0 0 
	 57 6 4 -1.0331207294598643 -6.206928498035975 -2.0503899448623524 0 0 0 
	 60 6 4 3.253871964137533 -6.073913429135895 -2.2853381018843506 0 0 0 
	 61 7 1 -5.449846225950279 8.700294060749737 5.606007976341753 0 0 0 
	 62 7 2 -5.713924465439933 9.096503881599789 4.772413073952101 0 0 0 
	 63 7 2 -5.978002704929587 9.49271370244984 3.9388181715624477 0 0 0 
	 65 7 2 -4.528876889823601 8.719708912305144 5.87626442021214 0 0 0 
	 66 7 2 -3.607907553696923 8.739123763860551 6.146520864082525 0 0 0 
	 68 7 2 -6.1067373225873025 8.284669388344279 6.16934643486102 0 0 0 
	 69 7 2 -6.763628419224326 7.86904471593882 6.732684893380286 0 0 0 
	 64 7 3 -6.132048344631885 9.723836097945703 3.452554478501817 0 0 0 
	 67 7 3 -3.0706754409563604 8.750449093934538 6.304170456340251 0 0 0 
	 70 7 3 -7.14681489226259 7.626596990368968 7.061298994183192 0 0 0 
	 71 8 1 -10.878584046616755 0.8153075608384768 -5.625849491480306 0 0 0 
	 72 8 2 -10.619080899970118 1.0521165823102616 -4.7324405122160105 0 0 0 
	 73 8 2 -10.359577753323483 1.2889256037820465 -3.839031532951715 0 0 0 
	 75 8 2 -11.268551027001184 1.475603156414273 -6.203374798867831 0 0 0 
	 76 8 2 -11.658518007385613 2.1358987519900694 -6.7809001062553556 0 0 0 
	 78 8 2 -10.748120212878963 -0.08179705620910371 -5.9417331633570765 0 0 0 
	 79 8 2 -10.61765637914117 -0.9789016732566842 -6.257616835233847 0 0 0 
	 74 8 4 -10.208200917779612 1.4270641996405873 -3.317876295047543 0 0 0 
	 77 8 4 -11.885998745943196 2.521071182742617 -7.117789868898079 0 0 0 
	 80 8 4 -10.541552476127457 -1.5022126998677727 -6.441882310495297 0 0 0 
	 81 9 1 5.407142744396732 7.442187585665506 6.372958210478797 0 0 0 
	 82 9 2 6.005719258949996 8.046556634421963 5.927936627709508 0 0 0 
	 83 9 2 6.604295773503259 8.65092568317842 5.482915044940221 0 0 0 
	 85 9 2 5.67009917517722 7.026265733064571 7.197253623568177 0 0 0 
	 86 9 2 5.933055605957707 6.610343880463636 8.021549036657557 0 0 0 
	 88 9 2 4.545609799062982 7.253740389509984 5.9936843801587045 0 0 0 
	 89 9 2 3.6840768537292305 7.065293193354463 5.614410549838612 0 0 0 
	 84 9 3 6.953465406992663 9.003474294953019 5.223319121658136 0 0 0 
	 87 9 3 6.086446857246325 6.367722799779758 8.502388027626363 0 0 0 
	 90 9 3 3.1815159689512087 6.955365662263742 5.393167482151892 0 0 0 
	 91 10 1 -0.5095462871716947 1.8562620227176811 7.631364277639187 0 0 0 
	 92 10 2 -1.3966349589495286 1.6245752923126027 7.915960390328103 0 0 0 
	 93 10 2 -2.2837236307273625 1.3928885619075242 8.20055650301702 0 0 0 
	 95 10 2 0.20333679951624728 1.2188105095937565 7.715348044703368 0 0 0 
	 96 10 2 0.9162198862041893 0.5813589964698318 7.799331811767548 0 0 0 
	 98 10 2 -0.3353407020818025 2.725400266246684 7.262784397886089 0 0 0 
	 99 10 2 -0.1611351169919103 3.594538509775687 6.894204518132993 0 0 0 
	 94 10 4 -2.801192022597766 1.2577379691712285 8.366570902085554 0 0 0 
	 97 10 4 1.3320683534388222 0.20951228048087556 7.848322342554987 0 0 0 
	 100 10 4 -0.05951519235614 4.101535818500938 6.679199588277019 0 0 0 
	 101 11 1 -10.058014078620161 -1.710150651151813 4.070159004012311 0 0 0 
	 102 11 2 -9.787599299175934 -1.9443550420474098 3.1793031512822787 0 0 0 
	 103 11 2 -9.517184519731707 -2.1785594329430067 2.2884472985522466 0 0 0 
	 105 11 2 -9.95825068839271 -2.343899597279413 4.784308525647999 0 0 0 
	 106 11 2 -9.858487298165258 -2.9776485434070126 5.498458047283687 0 0 0 
	 108 11 2 -10.42819224829184 -0.8421973141286168 4.246865335106655 0 0 0 
	 109 11 2 -10.798370417963516 0.025756022894579456 4.423571666200999 0 0 0 
	 104 11 3 -9.359442565055907 -2.3151786609654383 1.7687813844597282 0 0 0 
	 107 11 3 -9.800291987199245 -3.3473354286481123 5.915045268237838 0 0 0 
	 110 11 3 -11.01430768360533 0.5320621361581108 4.526650359339367 0 0 0 
	 111 12 1 -0.3631412132052452 6.017418543977609 -8.503868801676923 0 0 0 
	 112 12 2 -0.5659974308619584 6.914194805247888 -8.22774981975045 0 0 0 
	 113 12 2 -0.7688536485186717 7.810971066518168 -7.951630837823979 0 0 0 
	 115 12 2 -1.0464657966071942 5.470396731658724 -8.898120815705914 0 0 0 
	 116 12 2 -1.7297903800091432 4.923374919339839 -9.292372829734903 0 0 0 
	 118 12 2 0.5230395878534166 5.667664095026215 -8.385735769574405 0 0 0 
	 119 12 2 1.4092203889120785 5.31790964607482 -8.267602737471886 0 0 0 
	 114 12 4 -0.8871864421517545 8.334090552259164 -7.790561431700203 0 0 0 
	 117 12 4 -2.128396386993613 4.604278862153823 -9.522353171251815 0 0 0 
	 120 12 4 1.9261591895296313 5.113886217519839 -8.198691802078752 0 0 0 
	 121 13 1 1.7856138950809184 5.690197018012179 -3.856840056770542 0 0 0 
	 122 13 2 1.0644827680354858 5.120357013571651 -4.134062470989528 0 0 0 
	 123 13 2 0.3433516409900532 4.550517009131123 -4.411284885208514 0 0 0 
	 125 13 2 2.615238026935967 5.6839309783391805 -4.339835436241788 0 0 0 
	 126 13 2 3.4448621587910155 5.677664938666182 -4.822830815713035 0 0 0 
	 128 13 2 1.6771208902713028 6.266303062125705 -3.0966222630803104 0 0 0 
	 129 13 2 1.568627885461687 6.842409106239232 -2.3364044693900787 0 0 0 
	 124 13 3 -0.07730818311978283 4.218110339874148 -4.572997960169589 0 0 0 
	 127 13 3 3.928809569039794 5.674009748856933 -5.104578120404595 0 0 0 
	 130 13 3 1.5053402993227443 7.178470965305456 -1.892944089737443 0 0 0 
	 131 14 1 5.482710211831288 0.6702078792019917 -4.720149235755049 0 0 0 
	 132 14 2 6.412905506885586 0.4890552751293522 -4.5667854620125246 0 0 0 
	 133 14 2 7.343100801939884 0.3079026710567128 -4.41342168827 0 0 0 
	 135 14 2 5.012867140921864 1.2836383076131659 -4.150455810992497 0 0 0 
	 136 14 2 4.543024070012441 1.8970687360243401 -3.580762386229946 0 0 0 
	 138 14 2 5.022357987686413 0.23793005486345714 -5.443206434260126 0 0 0 
	 139 14 2 4.562005763541538 -0.19434776947507737 -6.166263632765203 0 0 0 
	 134 14 4 7.885714724054891 0.20223031868100644 -4.323959486920193 0 0 0 
	 137 14 4 4.268948945315277 2.254903152597525 -3.248441221785124 0 0 0 
	 140 14 4 4.293466966123694 -0.44650983367255614 -6.588046998559831 0 0 0 
	 141 15 1 -4.836099971485416 -8.768627471712819 4.609852883862558 0 0 0 
	 142 15 2 -5.705063392264353 -9.175933350652722 4.634439350244686 0 0 0 
	 143 15 2 -6.574026813043291 -9.583239229592625 4.659025816626815 0 0 0 
	 145 15 2 -4.165060657792542 -9.030609769779913 5.244416919227061 0 0 0 
	 146 15 2 -3.494021344099669 -9.292592067847005 5.8789809545915634 0 0 0 
	 148 15 2 -4.638175864399351 -8.099339294705821 3.950702382115928 0 0 0 
	 149 15 2 -4.440251757313287 -7.430051117698825 3.291551880369297 0 0 0 
	 144 15 3 -7.080922141831005 -9.820834325640902 4.673367922016389 0 0 0 
	 147 15 3 -3.1025817444454926 -9.44541507505281 6.24914330855419 0 0 0 
	 150 15 3 -4.324796028179749 -7.0396330144447425 2.907047421017096 0 0 0 
	 151 16 1 -5.666679529320509 2.423580168983235 -4.5691627319109935 0 0 0 
	 152 16 2 -4.827181545228458 2.0595494209681835 -4.859549971997375 0 0 0 
	 153 16 2 -3.987683561136408 1.6955186729531322 -5.149937212083756 0 0 0 
	 155 16 2 -6.058058841397783 2.1284125593052337 -3.7437547623135985 0 0 0 
	 156 16 2 -6.449438153475058 1.8332449496272327 -2.9183467927162035 0 0 0 
	 158 16 2 -6.114798201335284 3.082778526676287 -5.104183461422006 0 0 0 
	 159 16 2 -6.56291687335006 3.7419768843693393 -5.63920419093302 0 0 0 
	 154 16 4 -3.497976403749379 1.4831674032776856 -5.319329768800813 0 0 0 
	 157 16 4 -6.677742752186802 1.6610638439817322 -2.4368588104510565 0 0 0 
	 160 16 4 -6.824319432025345 4.126509259690286 -5.95129961648111 0 0 0 
	 161 17 1 -0.7658557511373356 8.134126429556384 0.23459364277275352 0 0 0 
	 162 17 2 -1.1331347218928847 8.374496526234017 -0.619179379911806 0 0 0 
	 163 17 2 -1.500413692648434 8.61486662291165 -1.4729524025963656 0 0 0 
	 165 17 2 0.14894743524112009 7.850706569019418 0.3009887694390308 0 0 0 
	 166 17 2 1.0637506216195758 7.5672867084824516 0.3673838961053081 0 0 0 
	 168 17 2 -1.3133799667602415 8.177176193415717 1.0219715387910357 0 0 0 
	 169 17 2 -1.8609041823831476 8.220225957275048 1.809349434809318 0 0 0 
	 164 17 3 -1.714659758922504 8.75508251264027 -1.9709866658290252 0 0 0 
	 167 17 3 1.5973858136736743 7.401958456502555 0.4061143866606366 0 0 0 
	 170 17 3 -2.1802933081631766 8.245338319526326 2.268653207486649 0 0 0 
	 171 18 1 10.381608548990855 -2.65268518595538 -1.858837794728041 0 0 0 
	 172 18 2 9.494281361083223 -2.95242634868554 -2.0695643876514476 0 0 0 
	 173 18 2 8.606954173175591 -3.2521675114157005 -2.280290980574854 0 0 0 
	 175 18 2 10.685542266298606 -1.7966965450881764 -2.1694947473137027 0 0 0 
	 176 18 2 10.989475983606356 -0.940707904220973 -2.4801516998993645 0 0 0 
	 178 18 2 10.965002019590735 -3.2089326640924227 -1.3374542492189727 0 0 0 
	 179 18 2 11.548395490190615 -3.7651801422294655 -0.8160707037099044 0 0 0 
	 174 18 4 8.08934664689614 -3.427016523008294 -2.403214826446842 0 0 0 
	 177 18 4 11.166770652035877 -0.4413811970484378 -2.6613682555743337 0 0 0 
	 180 18 4 11.888708348040545 -4.0896578378094075 -0.5119303021629475 0 0 0 
	 181 19 1 4.712159493820722 8.276131439294707 -6.973727845783402 0 0 0 
	 182 19 2 5.076824187391598 9.15160758187952 -7.122594178537569 0 0 0 
	 183 19 2 5.441488880962473 10.027083724464333 -7.271460511291736 0 0 0 
	 185 19 2 4.3921160143178755 7.757026714005907 -7.715147062833075 0 0 0 
	 186 19 2 4.07207253481503 7.2379219887171065 -8.456566279882749 0 0 0 
	 188 19 2 4.6675382797526925 7.919760021998693 -6.0834422959795615 0 0 0 
	 189 19 2 4.622917065684662 7.56338860470268 -5.193156746175722 0 0 0 
	 184 19 3 5.654209952212151 10.537778140972142 -7.358299205398334 0 0 0 
	 187 19 3 3.8853805051050356 6.935110898965306 -8.889060823161724 0 0 0 
	 190 19 3 4.596888024144978 7.355505277946672 -4.673823508790148 0 0 0 
	 191 20 1 6.216515440562654 -6.496549968980521 -5.653610357489205 0 0 0 
	 192 20 2 6.472441403132339 -7.296586254138941 -5.188805189582592 0 0 0 
	 193 20 2 6.728367365702026 -8.09662253929736 -4.724000021675981 0 0 0 
	 195 20 2 5.305117484180107 -6.1962111657882994 -5.626217504429028 0 0 0 
	 196 20 2 4.393719527797557 -5.895872362596079 -5.598824651368849 0 0 0 
	 198 20 2 6.871987434375519 -5.996852487014319 -6.145808378456 0 0 0 
	 199 20 2 7.527459428188386 -5.49715500504812 -6.638006399422791 0 0 0 
	 194 20 4 6.8776575105343385 -8.56331037230644 -4.452863673730457 0 0 0 
	 197 20 4 3.8620707199077366 -5.720674727400613 -5.582845487083744 0 0 0 
	 200 20 4 7.909818091245888 -5.205664807234505 -6.925121911653418 0 0 0 
	 201 21 1 1.827500598245499 2.3993836646939917 -10.638779047956326 0 0 0 
	 202 21 2 0.9101294540794699 2.1177604670642496 -10.665584987751634 0 0 0 
	 203 21 2 -0.007241690086559283 1.8361372694345075 -10.692390927546942 0 0 0 
	 205 21 2 2.5219227843125678 1.8006438300306802 -10.923187975181166 0 0 0 
	 206 21 2 3.216344970379636 1.2019039953673685 -11.207596902406005 0 0 0 
	 208 21 2 2.05044955634446 3.2797466969870452 -10.327564180936179 0 0 0 
	 209 21 2 2.273398514443421 4.160109729280098 -10.016349313916033 0 0 0 
	 204 21 3 -0.5423748575167431 1.671857070817158 -10.708027725760871 0 0 0 
	 207 21 3 3.6214245789187594 0.8526390918137701 -11.373502109953828 0 0 0 
	 210 21 3 2.4034520733344813 4.673654831451046 -9.83480730815428 0 0 0 
	 211 22 1 9.28656976570631 3.6188349042822394 2.8102534408825623 0 0 0 
	 212 22 2 10.140368521655347 3.218363396283972 2.630669879214277 0 0 0 
	 213 22 2 10.994167277604383 2.8178918882857045 2.451086317545995 0 0 0 
	 215 22 2 9.195672365625132 4.574518363216935 2.812859007443132 0 0 0 
	 216 22 2 9.104774965543955 5.530201822151628 2.815464574003699 0 0 0 
	 218 22 2 8.523668409838445 3.063622953345814 2.987231435990276 0 0 0 
	 219 22 2 7.760767053970583 2.508411002409387 3.164209431097991 0 0 0 
	 214 22 4 11.49221655190799 2.5842835086200466 2.34632923990616 0 0 0 
	 217 22 4 9.051751482163265 6.08768383986353 2.8169844878306995 0 0 0 
	 220 22 4 7.315741263047665 2.1845373643631394 3.2674465949108216 0 0 0 
	 221 23 1 -5.470290669733013 -8.111533962300845 -9.228877153048568 0 0 0 
	 222 23 2 -5.999001704568446 -7.617221176381104 -8.598227082629553 0 0 0 
	 223 23 2 -6.52771273940388 -7.122908390461364 -7.967577012210535 0 0 0 
	 225 23 2 -5.715672241856647 -8.122178852823893 -10.156925950455195 0 0 0 
	 226 23 2 -5.96105381398028 -8.132823743346941 -11.084974747861821 0 0 0 
	 228 23 2 -4.696198062773947 -8.595201857697537 -8.931478426060957 0 0 0 
	 229 23 2 -3.9221054558148802 -9.078869753094228 -8.634079699073348 0 0 0 
	 224 23 3 -6.836127509724549 -6.834559265341516 -7.599697804466109 0 0 0 
	 227 23 3 -6.104193064385734 -8.139033262818721 -11.626336546349021 0 0 0 
	 230 23 3 -3.4705514350887583 -9.3610093587423 -8.460597108330575 0 0 0 
	 231 24 1 -8.818821381000745 9.723517857866971 2.965610815699433 0 0 0 
	 232 24 2 -9.290913206585742 9.8190941509894 2.135192559391926 0 0 0 
	 233 24 2 -9.763005032170739 9.91467044411183 1.3047743030844188 0 0 0 
	 235 24 2 -8.2741675198439 8.948537709794772 3.1216811255630725 0 0 0 
	 236 24 2 -7.729513658687056 8.173557561722573 3.277751435426712 0 0 0 
	 238 24 2 -8.891383416572594 10.402921712816742 3.6399587621433014 0 0 0 
	 239 24 2 -8.963945452144442 11.08232556776651 4.31430670858717 0 0 0 
	 234 24 4 -10.038391930428652 9.97042328176658 0.820363653571706 0 0 0 
	 237 24 4 -7.411798906345563 7.721485808680457 3.3687924495138346 0 0 0 
	 240 24 4 -9.006273306228021 11.478644483153877 4.707676344012759 0 0 0 
	 241 25 1 10.177201796822121 8.291681543533727 -6.903682031956629 0 0 0 
	 242 25 2 10.598562844948239 7.993252638956335 -6.094364383542363 0 0 0 
	 243 25 2 11.019923893074356 7.694823734378942 -5.285046735128097 0 0 0 
	 245 25 2 9.624503086411378 7.68961045501991 -7.407303457122485 0 0 0 
	 246 25 2 9.071804376000635 7.087539366506093 -7.9109248822883425 0 0 0 
	 248 25 2 10.308539459106747 9.192181536624936 -7.2093782552050385 0 0 0 
	 249 25 2 10.439877121391373 10.092681529716145 -7.515074478453449 0 0 0 
	 244 25 3 11.265717837814591 7.520740206708797 -4.8129447735531095 0 0 0 
	 247 25 3 8.749396794927701 6.736331231539699 -8.204704046968425 0 0 0 
	 250 25 3 10.516490757724071 10.617973192352684 -7.693397275348354 0 0 0 
	 251 26 1 0.31873237640426877 -3.6193090167585598 -5.350403630224633 0 0 0 
	 252 26 2 0.8704497347093741 -3.000547990734937 -5.834493238891282 0 0 0 
	 253 26 2 1.4221670930144819 -2.3817869647113143 -6.318582847557928 0 0 0 
	 255 26 2 0.39078634937956813 -3.6808800815855243 -4.395093613028881 0 0 0 
	 256 26 2 0.4628403223548675 -3.74245114641249 -3.4397835958331298 0 0 0 
	 258 26 2 -0.30503895487613797 -4.176498977955218 -5.821624038753738 0 0 0 
	 259 26 2 -0.9288102861565442 -4.733688939151877 -6.2928444472828415 0 0 0 
	 254 26 4 1.7440022186924597 -2.0208430328642004 -6.600968452613473 0 0 0 
	 257 26 4 0.5048718065904588 -3.7783676008948857 -2.8825194191356083 0 0 0 
	 260 26 4 -1.2926768960701138 -5.058716416516594 -6.56772301892482 0 0 0 
	 261 27 1 -7.407173204193413 -3.09647682819912 -7.2860589428465845 0 0 0 
	 262 27 2 -7.624292475676645 -2.2164355960974893 -6.9698522829679 0 0 0 
	 263 27 2 -7.841411747159878 -1.3363943639958582 -6.653645623089216 0 0 0 
	 265 27 2 -7.285547254197601 -3.8147331409718443 -6.660826987929253 0 0 0 
	 266 27 2 -7.163921304201789 -4.532989453744569 -6.035595033011923 0 0 0 
	 268 27 2 -7.311679882705992 -3.2582617475280267 -8.2274975576426 0 0 0 
	 269 27 2 -7.216186561218571 -3.4200466668569334 -9.168936172438613 0 0 0 
	 264 27 3 -7.968064655525097 -0.8230369786032403 -6.469191738159983 0 0 0 
	 267 27 3 -7.092972833370899 -4.951972302861991 -5.67087639264348 0 0 0 
	 270 27 3 -7.1604821236842415 -3.514421203132129 -9.71810869773629 0 0 0 
	 271 28 1 8.369536418480688 6.594289118259926 -3.214819490149785 0 0 0 
	 272 28 2 8.802220105127304 6.0377958857723915 -2.5631292957280283 0 0 0 
	 273 28 2 9.234903791773922 5.481302653284856 -1.9114391013062717 0 0 0 
	 275 28 2 8.616958464173246 7.5181881210480235 -3.2972389293159727 0 0 0 
	 276 28 2 8.864380509865805 8.44208712383612 -3.3796583684821604 0 0 0 
	 278 28 2 7.689430686141514 6.226883347959364 -3.7840902454053538 0 0 0 
	 279 28 2 7.00932495380234 5.859477577658803 -4.353361000660923 0 0 0 
	 274 28 4 9.487302608984448 5.156681601000461 -1.5312864878935804 0 0 0 
	 277 28 4 9.008710036519798 8.981028208795845 -3.4277363746624365 0 0 0 
	 280 28 4 6.612596609937821 5.6451575449834746 -4.6854356078933375 0 0 0 
	 281 29 1 3.960648533562747 -6.014755082779229 10.152499333813566 0 0 0 
	 282 29 2 4.467762172545103 -5.423839679973238 10.713974839855197 0 0 0 
	 283 29 2 4.9748758115274585 -4.832924277167246 11.275450345896829 0 0 0 
	 285 29 2 3.4881080272734675 -6.7558723237335565 10.538570188807979 0 0 0 
	 286 29 2 3.0155675209841877 -7.496989564687883 10.92464104380239 0 0 0 
	 288 29 2 3.9260754008696703 -5.864553244630893 9.204952972777523 0 0 0 
	 289 29 2 3.891502268176594 -5.714351406482557 8.257406611741478 0 0 0 
	 284 29 3 5.270692100933832 -4.488223625530418 11.602977724421113 0 0 0 
	 287 29 3 2.7399188923154414 -7.929307955244575 11.149849042549132 0 0 0 
	 290 29 3 3.871334607438966 -5.626733667562695 7.704671234470454 0 0 0 
	 291 30 1 3.361573918779063 -2.7773652609499364 4.9436490512117315 0 0 0 
	 292 30 2 4.013327974591453 -2.6285968983207284 4.254675448660279 0 0 0 
	 293 30 2 4.665082030403841 -2.479828535691521 3.5657018461088295 0 0 0 
	 295 30 2 2.4254449031718748 -2.7135892713710774 4.740683316932387 0 0 0 
	 296 30 2 1.4893158875646861 -2.649813281792218 4.537717582653043 0 0 0 
	 298 30 2 3.6459488785738623 -2.9899096131580043 5.835588388042528 0 0 0 
	 299 30 2 3.930323838368661 -3.2024539653660717 6.7275277248733225 0 0 0 
	 294 30 4 5.045271896294403 -2.393046990824483 3.1638005779538165 0 0 0 
	 297 30 4 0.9432406284604942 -2.61261062120455 4.419320904323425 0 0 0 
	 300 30 4 4.096209231582295 -3.3264381708207766 7.247825671357953 0 0 0 
	 301 31 1 -3.692747329652377 -1.5911886320583994 -6.43431989049588 0 0 0 
	 302 31 2 -2.835771096606398 -1.9960460102557307 -6.2817347034248305 0 0 0 
	 303 31 2 -1.9787948635604204 -2.4009033884530613 -6.129149516353781 0 0 0 
	 305 31 2 -4.305198444888323 -1.474296012109851 -5.704361160944812 0 0 0 
	 306 31 2 -4.91764956012427 -1.3574033921613058 -4.9744024313937425 0 0 0 
	 308 31 2 -3.9372724474624095 -1.3032238738096131 -7.316863807117998 0 0 0 
	 309 31 2 -4.181797565272443 -1.0152591155608288 -8.199407723740116 0 0 0 
	 304 31 3 -1.4788920609502658 -2.6370701924015045 -6.040141490562334 0 0 0 
	 307 31 3 -5.274912710678571 -1.2892160305246545 -4.548593172488951 0 0 0 
	 310 31 3 -4.3244372173282954 -0.8472796732490355 -8.714225008436351 0 0 0 
	 311 32 1 3.3605334294959537 0.44361747428085874 8.846730237166248 0 0 0 
	 312 32 2 3.076376034145533 0.7312928171099051 9.717418167366189 0 0 0 
	 313 32 2 2.7922186387951125 1.0189681599389515 10.588106097566127 0 0 0 
	 315 32 2 3.195978608248852 0.9981604088030824 8.080568475802622 0 0 0 
	 316 32 2 3.03142378700175 1.5527033433253061 7.314406714438995 0 0 0 
	 318 32 2 3.8092456460934763 -0.3986008030704109 8.742204068329935 0 0 0 
	 319 32 2 4.257957862690999 -1.2408190804216805 8.637677899493621 0 0 0 
	 314 32 4 2.6264601581740337 1.1867787765892284 11.09600739018276 0 0 0 
	 317 32 4 2.935433474607607 1.876186721796603 6.8674790203102125 0 0 0 
	 320 32 4 4.51970665570622 -1.7321130755432548 8.576704301005773 0 0 0 
	 321 33 1 1.9045781959730155 -6.440299413389508 -4.2645309872700725 0 0 0 
	 322 33 2 1.6517966281329421 -5.78965953169492 -3.605464053409203 0 0 0 
	 323 33 2 1.399015060292869 -5.139019650000333 -2.9463971195483336 0 0 0 
	 325 33 2 1.8953642384906149 -6.208492275950057 -5.1960783848938545 0 0 0 
	 326 33 2 1.886150281008214 -5.976685138510606 -6.127625782517636 0 0 0 
	 328 33 2 2.166573721295489 -7.322746432523546 -3.9920505235071606 0 0 0 
	 329 33 2 2.428569246617963 -8.205193451657584 -3.7195700597442487 0 0 0 
	 324 33 3 1.251559145719493 -4.759479719011823 -2.561941408129493 0 0 0 
	 327 33 3 1.8807754724768138 -5.841464308337594 -6.671028431131509 0 0 0 
	 330 33 3 2.5813999697227397 -8.719954212819106 -3.5606231225492166 0 0 0 
	 331 34 1 -3.1171220948513447 -4.5527555834517734 -3.8222636022204637 0 0 0 
	 332 34 2 -2.732879225120912 -4.8572393594058845 -2.996886689990634 0 0 0 
	 333 34 2 -2.3486363553904797 -5.161723135359996 -2.171509777760805 0 0 0 
	 335 34 2 -3.2707538673306784 -3.6156894914215623 -3.9633466191009044 0 0 0 
	 336 34 2 -3.4243856398100108 -2.678623399391351 -4.104429635981345 0 0 0 
	 338 34 2 -3.347733192102445 -5.185337899527874 -4.506557497569855 0 0 0 
	 339 34 2 -3.578344289353545 -5.817920215603973 -5.190851392919247 0 0 0 
	 334 34 4 -2.1244946813810612 -5.339338671333229 -1.6900399122934042 0 0 0 
	 337 34 4 -3.514004173756289 -2.1320015123737273 -4.186728062494935 0 0 0 
	 340 34 4 -3.7128674294166863 -6.186926566648364 -5.590022831873054 0 0 0 
	 341 35 1 4.9444211166280905 5.173478789594988 1.3514679370679457 0 0 0 
	 342 35 2 4.9297444421860614 5.548916057156326 0.46804762184229043 0 0 0 
	 343 35 2 4.915067767744032 5.924353324717668 -0.415372693383365 0 0 0 
	 345 35 2 5.656481481347852 5.395811701111545 1.955734528442759 0 0 0 
	 346 35 2 6.368541846067612 5.618144612628101 2.56000111981757 0 0 0 
	 348 35 2 4.247037426350358 4.575708610517092 1.6306216609187925 0 0 0 
	 349 35 2 3.549653736072627 3.977938431439198 1.9097753847696386 0 0 0 
	 344 35 3 4.906506374319516 6.143358397461782 -0.9307012105983317 0 0 0 
	 347 35 3 6.783910392154138 5.747838811012757 2.912489964786208 0 0 0 
	 350 35 3 3.1428465834106167 3.6292391603104237 2.072615057015963 0 0 0 
	 351 36 1 -9.082527960465416 6.517489783137437 -2.2803415093312163 0 0 0 
	 352 36 2 -8.188721594272884 6.530949376342954 -2.6303829627398714 0 0 0 
	 353 36 2 -7.294915228080352 6.544408969548471 -2.9804244161485265 0 0 0 
	 355 36 2 -9.632637255522408 7.302095655768918 -2.338422385048557 0 0 0 
	 356 36 2 -10.182746550579399 8.086701528400399 -2.396503260765898 0 0 0 
	 358 36 2 -9.426225031600957 5.71942431730044 -1.8722191802052204 0 0 0 
	 359 36 2 -9.769922102736498 4.921358851463443 -1.4640968510792243 0 0 0 
	 354 36 4 -6.773528181134709 6.552260398918356 -3.184615263970243 0 0 0 
	 357 36 4 -10.503643639362643 8.544388287435428 -2.4303837716010133 0 0 0 
	 360 36 4 -9.970412060898896 4.455820663058528 -1.2260254924223934 0 0 0 
	 361 37 1 7.314267667419391 -1.181996203781745 -2.0200585576121433 0 0 0 
	 362 37 2 7.277678520031941 -1.0855000468655183 -1.0656216943289518 0 0 0 
	 363 37 2 7.24108937264449 -0.9890038899492923 -0.11118483104576138 0 0 0 
	 365 37 2 8.001979505499344 -0.7378028791692772 -2.5214014723266267 0 0 0 
	 366 37 2 8.689691343579304 -0.29360955455681026 -3.0227443870411115 0 0 0 
	 368 37 2 6.663144976726884 -1.7226856853104389 -2.4731525061808526 0 0 0 
	 369 37 2 6.012022286034378 -2.2633751668391326 -2.9262464547495632 0 0 0 
	 364 37 3 7.219745703335148 -0.9327144650814931 0.44557000586943507 0 0 0 
	 367 37 3 9.090856582459278 -0.03449678186620542 -3.315194420624559 0 0 0 
	 370 37 3 5.632200716463754 -2.578777364397539 -3.190551258081311 0 0 0 
	 371 38 1 -6.240029365592566 9.363763849793795 -2.1637858652930992 0 0 0 
	 372 38 2 -7.161423445704752 9.52529630233607 -1.9480540505093389 0 0 0 
	 373 38 2 -8.082817525816939 9.686828754878343 -1.7323222357255783 0 0 0 
	 375 38 2 -5.862946923671606 9.732989539533742 -2.965709316771472 0 0 0 
	 376 38 2 -5.485864481750646 10.102215229273689 -3.767632768249845 0 0 0 
	 378 38 2 -5.695717727401339 8.833005707511575 -1.5775942285984872 0 0 0 
	 379 38 2 -5.151406089210112 8.302247565229353 -0.9914025919038751 0 0 0 
	 374 38 4 -8.620297405882383 9.781056018861337 -1.606478677101718 0 0 0 
	 377 38 4 -5.265899723963419 10.317596881621991 -4.235421448278895 0 0 0 
	 380 38 4 -4.833890966931897 7.9926386488980565 -0.6494574704986846 0 0 0 
	 381 39 1 -3.1886465009471046 3.3995309141704984 3.5076541124051674 0 0 0 
	 382 39 2 -3.39081523772307 4.317520520002771 3.702648690417789 0 0 0 
	 383 39 2 -3.5929839744990346 5.235510125835045 3.897643268430411 0 0 0 
	 385 39 2 -2.8424994808943067 3.1568805501965547 2.645735878828525 0 0 0 
	 386 39 2 -2.4963524608415057 2.914230186222609 1.7838176452518832 0 0 0 
	 388 39 2 -3.3326247842239405 2.7241916723121715 4.174577767969188 0 0 0 
	 389 39 2 -3.4766030675007773 2.0488524304538447 4.841501423533209 0 0 0 
	 384 39 3 -3.710915737618345 5.771004062570538 4.011390105604442 0 0 0 
	 387 39 3 -2.2944333658107054 2.7726841405711413 1.2810320089988434 0 0 0 
	 390 39 3 -3.5605903994122645 1.6549045393698205 5.23054022261222 0 0 0 
	 391 40 1 6.340936189600623 -10.034371121514074 -8.624434902310838 0 0 0 
	 392 40 2 6.66626641103409 -9.268025895473512 -8.146444063960466 0 0 0 
	 393 40 2 6.991596632467556 -8.50168066943295 -7.668453225610092 0 0 0 
	 395 40 2 6.934298354646179 -10.535760600533258 -9.188464982555962 0 0 0 
	 396 40 2 7.527660519691736 -11.037150079552443 -9.752495062801087 0 0 0 
	 398 40 2 5.422243803121601 -10.29932686853545 -8.538395660416088 0 0 0 
	 399 40 2 4.50355141664258 -10.564282615556827 -8.452356418521337 0 0 0 
	 394 40 4 7.181372594970411 -8.054645954242623 -7.389625236572375 0 0 0 
	 397 40 4 7.873788449301643 -11.329627275646967 -10.081512609610742 0 0 0 
	 400 40 4 3.9676475245298164 -10.71884013465263 -8.4021668607494 0 0 0 