LAMMPS FENE chain data file 

10000  atoms          
9000  bonds          
9000  angles         
0  dihedrals      
0  impropers    

4  atom types     
2  bond types     
2  angle types    
0  dihedral types 
0  improper types 

-23.000000 23.000000 xlo xhi  
-23.000000 23.000000 ylo yhi  
-23.000000 23.000000 zlo zhi  

Masses

	 1 1.0 
	 2 1.0 
	 3 1.0 
	 4 1.0 

Atoms 

	 1 1 1 -2.333594597784626 -7.034394149575393 -15.721172397227866 0 0 0 
	 2 1 2 -3.0718120327578315 -7.633889872858432 -15.589871610989064 0 0 0 
	 3 1 2 -3.8100294677310367 -8.23338559614147 -15.458570824750263 0 0 0 
	 5 1 2 -2.237738632381655 -6.5661289232298925 -16.553722282635498 0 0 0 
	 6 1 2 -2.1418826669786837 -6.097863696884391 -17.38627216804313 0 0 0 
	 8 1 2 -1.6912331282143918 -6.903163652637854 -15.019923298059036 0 0 0 
	 9 1 2 -1.0488716586441575 -6.771933155700316 -14.318674198890205 0 0 0 
	 4 1 3 -4.2406563047987405 -8.583091434723244 -15.381978699444295 0 0 0 
	 7 1 3 -2.0859666871602838 -5.824708981516183 -17.87192626786425 0 0 0 
	 10 1 3 -0.6741608013948546 -6.695382032486752 -13.909612224375055 0 0 0 
	 11 2 1 4.6691545641076395 -10.0669588230573 -20.53239369081405 0 0 0 
	 12 2 2 5.174815435363564 -9.424578901030758 -20.029149099131367 0 0 0 
	 13 2 2 5.680476306619488 -8.782198979004216 -19.52590450744868 0 0 0 
	 15 2 2 5.120151492537567 -10.68526015023372 -21.111967016078978 0 0 0 
	 16 2 2 5.571148420967495 -11.303561477410142 -21.69154034134391 0 0 0 
	 18 2 2 3.712496764421788 -10.091037417907422 -20.456064957231806 0 0 0 
	 19 2 2 2.7558389647359367 -10.115116012757543 -20.379736223649562 0 0 0 
	 14 2 4 5.975445148185443 -8.407477357822065 -19.232345162300447 0 0 0 
	 17 2 4 5.8342299625516185 -11.664237251596386 -22.029624781081786 0 0 0 
	 20 2 4 2.1977885815858573 -10.129161859753449 -20.33521112905992 0 0 0 
	 21 3 1 4.310121633690033 -22.166998396401894 11.119777831044527 0 0 0 
	 22 3 2 3.61962138466912 -22.377343876316093 11.752679233461777 0 0 0 
	 23 3 2 2.9291211356482068 -22.587689356230293 12.385580635879025 0 0 0 
	 25 3 2 4.184041393476369 -22.363940811313366 10.18869380785623 0 0 0 
	 26 3 2 4.0579611532627045 -22.560883226224842 9.257609784667936 0 0 0 
	 28 3 2 5.126702122924611 -21.75971050157622 11.417960451815572 0 0 0 
	 29 3 2 5.943282612159189 -21.352422606750547 11.716143072586616 0 0 0 
	 24 3 3 2.5263293237193403 -22.710390886180246 12.75477312062242 0 0 0 
	 27 3 3 3.9844143464714006 -22.675766301589867 8.714477437808098 0 0 0 
	 30 3 3 6.4196212308793585 -21.114838001435572 11.89008293470306 0 0 0 
	 31 4 1 -3.685695065744766 18.025922254226487 6.861230440040097 0 0 0 
	 32 4 2 -3.3349095563622884 17.313839578355008 6.321334348990172 0 0 0 
	 33 4 2 -2.9841240469798107 16.601756902483526 5.7814382579402475 0 0 0 
	 35 4 2 -4.632569493415652 18.180272521222175 6.895940860684214 0 0 0 
	 36 4 2 -5.579443921086538 18.334622788217867 6.930651281328332 0 0 0 
	 38 4 2 -3.089606147456358 18.583654663102276 7.366416110445904 0 0 0 
	 39 4 2 -2.4935172291679506 19.141387071978066 7.8716017808517105 0 0 0 
	 34 4 4 -2.7794991665066986 16.186375341558495 5.466498871494458 0 0 0 
	 37 4 4 -6.1317873372278875 18.42466044396535 6.950899026704068 0 0 0 
	 40 4 4 -2.1457986934997124 19.46673097715561 8.166293421921765 0 0 0 
	 41 5 1 -9.93406193052603 6.9685009434122716 -6.067543984497118 0 0 0 
	 42 5 2 -10.048786502570515 6.05414277686571 -6.336593080089019 0 0 0 
	 43 5 2 -10.163511074615 5.139784610319149 -6.605642175680919 0 0 0 
	 45 5 2 -9.134886038512015 7.442943947224007 -6.308005477792201 0 0 0 
	 46 5 2 -8.335710146498 7.917386951035742 -6.548466971087284 0 0 0 
	 48 5 2 -10.618513250495559 7.408416106147098 -5.558033395610135 0 0 0 
	 49 5 2 -11.302964570465086 7.848331268881924 -5.0485228067231525 0 0 0 
	 44 5 3 -10.23043374164095 4.606409013166988 -6.762587481442861 0 0 0 
	 47 5 3 -7.869524209489825 8.194145369925922 -6.6887361755094155 0 0 0 
	 50 5 3 -11.702227840447312 8.104948447143906 -4.7513082965390785 0 0 0 
	 51 6 1 6.986625174379715 -0.4016413710900193 -9.473896552494827 0 0 0 
	 52 6 2 6.201339775741885 -0.11383984799811919 -9.945168370018648 0 0 0 
	 53 6 2 5.416054377104054 0.1739616750937809 -10.416440187542468 0 0 0 
	 55 6 2 6.964989950832888 -0.4981541075907111 -8.519005349898832 0 0 0 
	 56 6 2 6.943354727286062 -0.5946668440914029 -7.564114147302836 0 0 0 
	 58 6 2 7.793545796564373 -0.5929301576812276 -9.957515937567 0 0 0 
	 59 6 2 8.60046641874903 -0.7842189442724359 -10.441135322639175 0 0 0 
	 54 6 4 4.9579712278986525 0.3418458968973893 -10.691348747764696 0 0 0 
	 57 6 4 6.930734180217079 -0.6509659403834731 -7.007094279121839 0 0 0 
	 60 6 4 9.071170115023413 -0.895804069783974 -10.723246630597943 0 0 0 
	 61 7 1 -8.02025130637652 -14.64651159318512 -10.03437795868152 0 0 0 
	 62 7 2 -7.359127764627374 -15.061546498080416 -9.475574155666886 0 0 0 
	 63 7 2 -6.698004222878228 -15.476581402975711 -8.91677035265225 0 0 0 
	 65 7 2 -8.942690933523776 -14.90075034507943 -9.956481929876105 0 0 0 
	 66 7 2 -9.865130560671034 -15.154989096973742 -9.878585901070691 0 0 0 
	 68 7 2 -7.758935220978411 -13.977237936395516 -10.671077790501567 0 0 0 
	 69 7 2 -7.497619135580301 -13.307964279605912 -11.307777622321616 0 0 0 
	 64 7 3 -6.312348823524559 -15.718685097497966 -8.59080146756038 0 0 0 
	 67 7 3 -10.403220343173599 -15.303295035578754 -9.833146550934199 0 0 0 
	 70 7 3 -7.345184752431404 -12.917554646478642 -11.679185857549978 0 0 0 
	 71 8 1 -17.336937415508597 7.014801881859813 -14.70249790399805 0 0 0 
	 72 8 2 -17.91520690439551 7.575621310279239 -15.224691323077396 0 0 0 
	 73 8 2 -18.493476393282425 8.136440738698665 -15.746884742156741 0 0 0 
	 75 8 2 -17.278413521426756 7.138272125527333 -13.752271587402799 0 0 0 
	 76 8 2 -17.219889627344912 7.261742369194853 -12.802045270807547 0 0 0 
	 78 8 2 -16.817191820703528 6.330512209772867 -15.130530801513958 0 0 0 
	 79 8 2 -16.297446225898454 5.6462225376859205 -15.558563699029865 0 0 0 
	 74 8 4 -18.83080026179979 8.463585405276664 -16.051497569953025 0 0 0 
	 77 8 4 -17.185750689130504 7.333766678000907 -12.247746586126983 0 0 0 
	 80 8 4 -15.994261295595498 5.247053562301868 -15.808249555914143 0 0 0 
	 81 9 1 -19.80544350544755 -3.361790774713869 3.700313958828716 0 0 0 
	 82 9 2 -18.958132759469475 -3.4999403750383915 3.2706871583608494 0 0 0 
	 83 9 2 -18.110822013491404 -3.6380899753629135 2.8410603578929825 0 0 0 
	 85 9 2 -20.19714407186417 -4.063172148712037 4.225894432664398 0 0 0 
	 86 9 2 -20.588844638280793 -4.764553522710205 4.75147490650008 0 0 0 
	 88 9 2 -20.261053685009 -2.522259800391179 3.604360285460901 0 0 0 
	 89 9 2 -20.716663864570453 -1.6827288260684896 3.5084066120930855 0 0 0 
	 84 9 3 -17.61655741167086 -3.718677242218885 2.5904447242867272 0 0 0 
	 87 9 3 -20.817336635357155 -5.173692657542469 5.058063516237562 0 0 0 
	 90 9 3 -20.98243646931463 -1.193002424380254 3.4524336359618597 0 0 0 
	 91 10 1 -1.0540217482157925 8.691764628412693 -6.052746372961713 0 0 0 
	 92 10 2 -1.3297695491680095 7.800417261907095 -6.278717659840268 0 0 0 
	 93 10 2 -1.6055173501202264 6.909069895401496 -6.504688946718824 0 0 0 
	 95 10 2 -0.12159624437151373 8.892758696797815 -5.944191943044089 0 0 0 
	 96 10 2 0.8108292594727651 9.093752765182934 -5.835637513126466 0 0 0 
	 98 10 2 -1.7106994511078537 9.382117926533171 -5.935329516000781 0 0 0 
	 99 10 2 -2.3673771539999153 10.072471224653649 -5.817912659039849 0 0 0 
	 94 10 4 -1.7663702340090197 6.389117264939896 -6.6365055307313146 0 0 0 
	 97 10 4 1.3547441367152606 9.210999305074255 -5.772314095674519 0 0 0 
	 100 10 4 -2.7504391473536174 10.475177315223927 -5.749419492479306 0 0 0 
	 101 11 1 6.591823269165181 -12.849902870816312 -1.7522634585995953 0 0 0 
	 102 11 2 6.317374150841514 -13.568170587907534 -2.327040952971047 0 0 0 
	 103 11 2 6.042925032517849 -14.286438304998759 -2.9018184473424995 0 0 0 
	 105 11 2 6.544633185856126 -11.94246877270199 -2.061999561785406 0 0 0 
	 106 11 2 6.497443102547073 -11.035034674587667 -2.3717356649712165 0 0 0 
	 108 11 2 6.9134624707979 -13.03906925183941 -0.8677498610423329 0 0 0 
	 109 11 2 7.23510167243062 -13.228235632862509 0.016763736514929573 0 0 0 
	 104 11 3 5.882829713495711 -14.705427806635306 -3.2371053190591796 0 0 0 
	 107 11 3 6.469915553950124 -10.505698117354312 -2.5524150584962726 0 0 0 
	 110 11 3 7.422724540049707 -13.338582688459315 0.5327300017566654 0 0 0 
	 111 12 1 -13.533836677884207 10.260022560314887 20.418275704037423 0 0 0 
	 112 12 2 -14.180113290864796 10.527125262015065 21.075985888129782 0 0 0 
	 113 12 2 -14.826389903845387 10.794227963715242 21.733696072222138 0 0 0 
	 115 12 2 -13.130459117377729 9.390259229425329 20.467248062769098 0 0 0 
	 116 12 2 -12.727081556871251 8.52049589853577 20.51622042150077 0 0 0 
	 118 12 2 -13.290937625410095 10.862683189504267 19.711593161213393 0 0 0 
	 119 12 2 -13.048038572935981 11.465343818693647 19.00491061838936 0 0 0 
	 114 12 4 -15.20338459475073 10.950037873040346 22.117360346276012 0 0 0 
	 117 12 4 -12.49177797990914 8.013133955516862 20.544787630760915 0 0 0 
	 120 12 4 -12.90634745899275 11.816895852387454 18.592679135075343 0 0 0 
	 121 13 1 9.372192914933349 -8.342585088698378 -9.299576910273013 0 0 0 
	 122 13 2 8.539969282698728 -7.897313950533572 -9.124255948983064 0 0 0 
	 123 13 2 7.707745650464105 -7.4520428123687665 -8.948934987693116 0 0 0 
	 125 13 2 9.692408495391767 -9.016718923897075 -8.695751145443477 0 0 0 
	 126 13 2 10.012624075850185 -9.690852759095772 -8.09192538061394 0 0 0 
	 128 13 2 9.884200966709551 -8.113722391664487 -10.078723636392496 0 0 0 
	 129 13 2 10.396209018485756 -7.884859694630595 -10.85787036251198 0 0 0 
	 124 13 3 7.222281864993909 -7.192301315105963 -8.846664426940647 0 0 0 
	 127 13 3 10.199416497784263 -10.084097496295012 -7.739693684463379 0 0 0 
	 130 13 3 10.694880382021875 -7.751356454694159 -11.312372619415012 0 0 0 
	 131 14 1 1.9502427776555544 -1.4676649240262272 2.2946972842892186 0 0 0 
	 132 14 2 1.9734791995364058 -2.3046373265250732 2.7643112386746105 0 0 0 
	 133 14 2 1.9967156214172574 -3.141609729023919 3.2339251930600024 0 0 0 
	 135 14 2 2.110257855276276 -1.4436029109287702 1.348432947827291 0 0 0 
	 136 14 2 2.2702729328969973 -1.419540897831313 0.4021686113653633 0 0 0 
	 138 14 2 1.7669912781539816 -0.6547545346248382 2.771347666365754 0 0 0 
	 139 14 2 1.5837397786524088 0.1581558547765507 3.2479980484422892 0 0 0 
	 134 14 4 2.010270200847754 -3.629843630481579 3.5078666664514806 0 0 0 
	 137 14 4 2.3636150615090843 -1.4055047235244633 -0.14981891823742766 0 0 0 
	 140 14 4 1.4768430706098248 0.6323535819273607 3.526044104653602 0 0 0 
	 141 15 1 -18.312072365911305 -20.33196791987164 -18.672629294468255 0 0 0 
	 142 15 2 -18.137211438890116 -19.64716573399378 -18.02296043849762 0 0 0 
	 143 15 2 -17.962350511868927 -18.962363548115917 -17.373291582526985 0 0 0 
	 145 15 2 -19.141438694343726 -20.334420203308945 -19.156101609671996 0 0 0 
	 146 15 2 -19.97080502277615 -20.33687248674625 -19.639573924875737 0 0 0 
	 148 15 2 -17.657566964500074 -21.014317822312197 -18.83882583523515 0 0 0 
	 149 15 2 -17.00306156308884 -21.696667724752757 -19.005022376002042 0 0 0 
	 144 15 3 -17.860348304439903 -18.562895606353834 -16.994318083210782 0 0 0 
	 147 15 3 -20.45460204769506 -20.338302985418007 -19.92159944207792 0 0 0 
	 150 15 3 -16.621266745598952 -22.09470516784308 -19.101970358116063 0 0 0 
	 151 16 1 -1.5769193970869189 9.710179435527289 6.022908117831034 0 0 0 
	 152 16 2 -1.8037311663023932 10.138986891067528 6.851328655612692 0 0 0 
	 153 16 2 -2.0305429355178677 10.56779434660777 7.67974919339435 0 0 0 
	 155 16 2 -1.2370600171892114 10.22982095829299 5.290741272287418 0 0 0 
	 156 16 2 -0.8972006372915041 10.749462481058691 4.558574426743801 0 0 0 
	 158 16 2 -1.6899670077691518 8.761730457221349 5.926654425592992 0 0 0 
	 159 16 2 -1.8030146184513844 7.813281478915409 5.830400733354949 0 0 0 
	 154 16 4 -2.162849800893561 10.817932029006242 8.162994507100318 0 0 0 
	 157 16 4 -0.6989493323511751 11.052586702672016 4.131477100176692 0 0 0 
	 160 16 4 -1.86895905801602 7.26001957490361 5.774252746216092 0 0 0 
	 161 17 1 -7.105897301656215 2.7878084756097348 -19.911090610402457 0 0 0 
	 162 17 2 -6.174720008965921 3.020119963253276 -19.887847927966494 0 0 0 
	 163 17 2 -5.243542716275627 3.2524314508968177 -19.864605245530527 0 0 0 
	 165 17 2 -7.705966430676292 3.1435450808890772 -19.251569186897946 0 0 0 
	 166 17 2 -8.306035559696369 3.49928168616842 -18.592047763393435 0 0 0 
	 168 17 2 -7.437005465326433 2.199760382686851 -20.593854716342932 0 0 0 
	 169 17 2 -7.76811362899665 1.611712289763967 -21.276618822283407 0 0 0 
	 164 17 3 -4.700355962206289 3.38794648535555 -19.85104701410955 0 0 0 
	 167 17 3 -8.65607588495808 3.706794705914703 -18.207326933015807 0 0 0 
	 170 17 3 -7.961260057804277 1.2686842355589514 -21.674897884082018 0 0 0 
	 171 18 1 13.721074054021285 19.056658149338666 3.537926144064796 0 0 0 
	 172 18 2 13.811755531775729 18.60286497080971 4.379025793757302 0 0 0 
	 173 18 2 13.902437009530173 18.149071792280754 5.220125443449809 0 0 0 
	 175 18 2 12.913360294382578 19.5340527490032 3.334719651300805 0 0 0 
	 176 18 2 12.10564653474387 20.011447348667737 3.1315131585368134 0 0 0 
	 178 18 2 14.438106335905548 19.03305672820309 2.9000329871362815 0 0 0 
	 179 18 2 15.155138617789811 19.00945530706751 2.2621398302077664 0 0 0 
	 174 18 4 13.955334538220264 17.88435910480553 5.710766905770438 0 0 0 
	 177 18 4 11.634480174954625 20.289927531805382 3.0129760377578183 0 0 0 
	 180 18 4 15.573407448888965 18.995687811405087 1.8900354886661328 0 0 0 
	 181 19 1 9.500750861505612 -11.898632638788131 -19.59899069800955 0 0 0 
	 182 19 2 9.1282369178764 -11.024431947446658 -19.462585005093516 0 0 0 
	 183 19 2 8.75572297424719 -10.150231256105185 -19.32617931217748 0 0 0 
	 185 19 2 8.926086003104691 -12.637193706701927 -19.813205192106196 0 0 0 
	 186 19 2 8.351421144703771 -13.375754774615725 -20.027419686202844 0 0 0 
	 188 19 2 10.447929663535742 -12.034272262215808 -19.521181896828942 0 0 0 
	 189 19 2 11.395108465565874 -12.169911885643483 -19.44337309564833 0 0 0 
	 184 19 3 8.538423173796817 -9.64028085282266 -19.246609324643124 0 0 0 
	 187 19 3 8.016199977303234 -13.806582064232106 -20.152378141092555 0 0 0 
	 190 19 3 11.947629433416783 -12.249034999309627 -19.397984628292974 0 0 0 
	 191 20 1 -21.444291667407494 -0.9913660441010372 -0.06347398450447206 0 0 0 
	 192 20 2 -21.780590887674673 -1.2566244052572568 -0.9226252146638685 0 0 0 
	 193 20 2 -22.116890107941853 -1.5218827664134764 -1.781776444823265 0 0 0 
	 195 20 2 -20.642929727367026 -1.390961977505589 0.28256377508416425 0 0 0 
	 196 20 2 -19.84156778732656 -1.7905579109101408 0.6286015346728006 0 0 0 
	 198 20 2 -21.909354387180784 -0.3265117495402662 0.44963948606628823 0 0 0 
	 199 20 2 -22.374417106954073 0.33834254502050487 0.9627529566370485 0 0 0 
	 194 20 4 -22.313064653097705 -1.676616810421271 -2.2829479957495797 0 0 0 
	 197 20 4 -19.374106655636286 -2.0236555387294626 0.8304568944328382 0 0 0 
	 200 20 4 -22.645703693488493 0.7261742168476211 1.2620691478033252 0 0 0 
	 201 21 1 -11.39617086866293 -7.459635650196708 -18.6623874652083 0 0 0 
	 202 21 2 -12.081706286691807 -6.807874894950347 -18.826244441100897 0 0 0 
	 203 21 2 -12.767241704720684 -6.156114139703986 -18.99010141699349 0 0 0 
	 205 21 2 -11.633046733588204 -8.340707515995629 -18.363720105234847 0 0 0 
	 206 21 2 -11.86992259851348 -9.22177938179455 -18.065052745261397 0 0 0 
	 208 21 2 -10.473759585708779 -7.2303245396441485 -18.79719784928916 0 0 0 
	 209 21 2 -9.551348302754628 -7.001013429091588 -18.932008233370016 0 0 0 
	 204 21 3 -13.167137365237528 -5.775920365810276 -19.085684652930837 0 0 0 
	 207 21 3 -12.008100186386557 -9.735737970177253 -17.890830118610218 0 0 0 
	 210 21 3 -9.013275054364705 -6.8672486146025955 -19.01064762408385 0 0 0 
	 211 22 1 1.1026603456747197 4.147321512445076 -9.572591986339978 0 0 0 
	 212 22 2 0.41837614638957654 3.6802371169576555 -9.087630851710777 0 0 0 
	 213 22 2 -0.2659080528955666 3.2131527214702347 -8.602669717081579 0 0 0 
	 215 22 2 1.3386840675715008 3.866866815249386 -10.45985630181923 0 0 0 
	 216 22 2 1.5747077894682817 3.5864121180536963 -11.347120617298481 0 0 0 
	 218 22 2 1.5509208230630818 4.894860605128187 -9.170288805489927 0 0 0 
	 219 22 2 1.9991813004514438 5.642399697811298 -8.767985624639875 0 0 0 
	 214 22 4 -0.6650738358119004 2.9406868241025723 -8.31977572188121 0 0 0 
	 217 22 4 1.7123882939080708 3.422813544689544 -11.86469146799471 0 0 0 
	 220 22 4 2.2606665789279887 6.078464168543112 -8.533308769144012 0 0 0 
	 221 23 1 -0.6915340114400315 -0.780673324638242 -6.7259324251715915 0 0 0 
	 222 23 2 -0.9357032954266384 -1.709070371188139 -6.733696748380707 0 0 0 
	 223 23 2 -1.1798725794132454 -2.637467417738036 -6.741461071589822 0 0 0 
	 225 23 2 0.15992426685929062 -0.5053612903251475 -7.073527137556489 0 0 0 
	 226 23 2 1.0113825451586127 -0.23004925601205306 -7.421121849941386 0 0 0 
	 228 23 2 -1.298823005752746 -0.12758831240143942 -6.370573389577579 0 0 0 
	 229 23 2 -1.9061120000654603 0.5254966998353632 -6.015214353983566 0 0 0 
	 224 23 3 -1.3223046617387664 -3.179032361558809 -6.7459902601284725 0 0 0 
	 227 23 3 1.5080665408332163 -0.06945056932941474 -7.62388543216591 0 0 0 
	 230 23 3 -2.260363913414544 0.9064629569734979 -5.807921583220392 0 0 0 
	 231 24 1 0.7926694614351144 -6.08817842388893 -4.982066804845561 0 0 0 
	 232 24 2 1.4031292760331866 -6.083582521954584 -4.24117700707109 0 0 0 
	 233 24 2 2.0135890906312577 -6.078986620020238 -3.500287209296618 0 0 0 
	 235 24 2 0.40003615786239877 -6.913648728136138 -5.275388924249464 0 0 0 
	 236 24 2 0.007402854289683347 -7.739119032383346 -5.568711043653365 0 0 0 
	 238 24 2 0.5748429504097565 -5.267304021576068 -5.4296344832161285 0 0 0 
	 239 24 2 0.35701643938439953 -4.446429619263206 -5.877202161586698 0 0 0 
	 234 24 4 2.369690649146801 -6.0763056772252035 -3.0681014939281774 0 0 0 
	 237 24 4 -0.22163323946106672 -8.220643376527551 -5.739815613305643 0 0 0 
	 240 24 4 0.22995097461960823 -3.967586217914036 -6.1382833073028635 0 0 0 
	 241 25 1 -13.95102565693265 -0.49935131532800403 16.62278784816596 0 0 0 
	 242 25 2 -13.839736304365315 -0.7138378896812424 15.693696792656675 0 0 0 
	 243 25 2 -13.728446951797983 -0.9283244640344808 14.76460573714739 0 0 0 
	 245 25 2 -13.292990639360145 -0.7808911484546242 17.26257315435186 0 0 0 
	 246 25 2 -12.634955621787638 -1.0624309815812443 17.902358460537762 0 0 0 
	 248 25 2 -14.72035002707249 -0.003324907848145764 16.912093597489342 0 0 0 
	 249 25 2 -15.48967439721233 0.4927014996317125 17.201399346812728 0 0 0 
	 244 25 3 -13.66352816280037 -1.0534416324072033 14.222635954766975 0 0 0 
	 247 25 3 -12.25110186153701 -1.226662550905106 18.27556655581287 0 0 0 
	 250 25 3 -15.93844694646057 0.7820502373282965 17.370161033918034 0 0 0 
	 251 26 1 15.528053512056431 18.546198377069917 -17.032665127039053 0 0 0 
	 252 26 2 15.57054726224337 17.939170815806047 -16.29016137549224 0 0 0 
	 253 26 2 15.613041012430307 17.332143254542178 -15.54765762394543 0 0 0 
	 255 26 2 15.288236427147151 19.46455351961341 -16.888749881322926 0 0 0 
	 256 26 2 15.04841934223787 20.382908662156908 -16.7448346356068 0 0 0 
	 258 26 2 15.725376846778774 18.234870795790293 -17.919084124301992 0 0 0 
	 259 26 2 15.922700181501115 17.923543214510666 -18.80550312156493 0 0 0 
	 254 26 4 15.637829033372688 16.978043843804922 -15.114530435543122 0 0 0 
	 257 26 4 14.908526042707456 20.91861582864061 -16.660884075605725 0 0 0 
	 260 26 4 16.03780546008915 17.741935458764218 -19.32258086996831 0 0 0 
	 261 27 1 -2.8074690188886526 -3.2962604749343845 20.909976308855978 0 0 0 
	 262 27 2 -3.4596839591901465 -3.1439285053568313 20.222218617010846 0 0 0 
	 263 27 2 -4.11189889949164 -2.9915965357792778 19.534460925165714 0 0 0 
	 265 27 2 -2.287015880779417 -4.102934873067185 20.907752251902295 0 0 0 
	 266 27 2 -1.7665627426701818 -4.909609271199986 20.905528194948612 0 0 0 
	 268 27 2 -2.675707216696394 -2.6419180463791374 21.599958057654792 0 0 0 
	 269 27 2 -2.5439454145041354 -1.9875756178238908 22.289939806453607 0 0 0 
	 264 27 3 -4.492357614667512 -2.902736220192372 19.133268938256055 0 0 0 
	 267 27 3 -1.462965078773128 -5.380169336777453 20.904230828392297 0 0 0 
	 270 27 3 -2.467084363225318 -1.6058758678333298 22.69242915991958 0 0 0 
	 271 28 1 -5.0857575405822075 3.749966323021583 -2.8881291892351673 0 0 0 
	 272 28 2 -4.5025678588812585 4.175544443787021 -3.5208795810037574 0 0 0 
	 273 28 2 -3.9193781771803105 4.601122564552459 -4.153629972772348 0 0 0 
	 275 28 2 -5.429842760544692 2.8719003235399114 -3.0675879921889977 0 0 0 
	 276 28 2 -5.773927980507176 1.9938343240582397 -3.247046795142828 0 0 0 
	 278 28 2 -5.324862002320672 4.202454201737816 -2.075919994512747 0 0 0 
	 279 28 2 -5.563966464059137 4.654942080454049 -1.2637107997903267 0 0 0 
	 274 28 4 -3.5791841961880904 4.849376468332299 -4.522734367970692 0 0 0 
	 277 28 4 -5.974644358818625 1.481629157693931 -3.351731096865896 0 0 0 
	 280 28 4 -5.703444066739907 4.918893343038518 -0.789922102868915 0 0 0 
	 281 29 1 10.937297555465888 -9.175634193746488 12.53383142507973 0 0 0 
	 282 29 2 10.28275647951611 -8.639322585352694 12.080459790990687 0 0 0 
	 283 29 2 9.628215403566333 -8.103010976958899 11.627088156901642 0 0 0 
	 285 29 2 10.663454332408307 -9.953232639908665 13.025716112492955 0 0 0 
	 286 29 2 10.389611109350726 -10.730831086070841 13.517600799906177 0 0 0 
	 288 29 2 11.865681854473246 -8.934347355978105 12.495318371755552 0 0 0 
	 289 29 2 12.794066153480603 -8.693060518209723 12.456805318431373 0 0 0 
	 284 29 3 9.246399775928962 -7.790162538729186 11.362621370349702 0 0 0 
	 287 29 3 10.229869229233804 -11.184430179665444 13.804533534230558 0 0 0 
	 290 29 3 13.335623661234894 -8.552309862844833 12.434339370658934 0 0 0 
	 291 30 1 -5.210862115476513 17.906278691747346 -12.027799309890677 0 0 0 
	 292 30 2 -5.094339028955651 17.578116111361876 -11.133186717120822 0 0 0 
	 293 30 2 -4.9778159424347885 17.249953530976406 -10.238574124350968 0 0 0 
	 295 30 2 -6.0323828084815645 18.334989432534336 -12.278619667314814 0 0 0 
	 296 30 2 -6.853903501486615 18.763700173321325 -12.52944002473895 0 0 0 
	 298 30 2 -4.5058645089923255 17.805730531345827 -12.671591545236394 0 0 0 
	 299 30 2 -3.8008669025081376 17.705182370944307 -13.315383780582112 0 0 0 
	 294 30 4 -4.909844141964285 17.058525359084882 -9.716716778568552 0 0 0 
	 297 30 4 -7.33312390573956 19.013781438780402 -12.67575189990303 0 0 0 
	 300 30 4 -3.3896182987256944 17.646529277376754 -13.690929251200448 0 0 0 
	 301 31 1 3.5125839198670303 -10.555595465125984 -4.557712110821304 0 0 0 
	 302 31 2 3.0566920817829306 -9.738458191023149 -4.772303134026116 0 0 0 
	 303 31 2 2.6008002436988313 -8.921320916920314 -4.98689415723093 0 0 0 
	 305 31 2 4.443468932589164 -10.655869711657925 -4.769839828415594 0 0 0 
	 306 31 2 5.374353945311299 -10.756143958189867 -4.9819675460098845 0 0 0 
	 308 31 2 3.037590745228996 -11.27245849269688 -4.130993370022201 0 0 0 
	 309 31 2 2.5625975705909614 -11.989321520267772 -3.7042746292230966 0 0 0 
	 304 31 3 2.3348633381497734 -8.444657507026992 -5.112072254100404 0 0 0 
	 307 31 3 5.917370202732544 -10.814637268666832 -5.105708714606554 0 0 0 
	 310 31 3 2.2855182187187744 -12.407491619684128 -3.4553553637569534 0 0 0 
	 311 32 1 20.514979916840293 -11.67833003749689 -16.3759108847263 0 0 0 
	 312 32 2 20.62961799786839 -11.084128644502579 -15.630670779161779 0 0 0 
	 313 32 2 20.74425607889649 -10.489927251508268 -14.88543067359726 0 0 0 
	 315 32 2 19.73683457724977 -12.2381113321216 -16.428205556174102 0 0 0 
	 316 32 2 18.958689237659247 -12.797892626746311 -16.480500227621903 0 0 0 
	 318 32 2 21.178487175402715 -11.712750135866491 -17.068856318843014 0 0 0 
	 319 32 2 21.84199443396514 -11.74717023423609 -17.76180175295973 0 0 0 
	 314 32 4 20.811128292829547 -10.143309772261588 -14.450707278684623 0 0 0 
	 317 32 4 18.50477112289811 -13.12443171527739 -16.51100545263312 0 0 0 
	 320 32 4 22.229040334793222 -11.76724862495169 -18.16601992286115 0 0 0 
	 321 33 1 -18.079227011409856 2.32099056213472 7.035133586734032 0 0 0 
	 322 33 2 -18.008234621633616 2.6379743286007336 6.1317613642305515 0 0 0 
	 323 33 2 -17.937242231857375 2.954958095066747 5.228389141727071 0 0 0 
	 325 33 2 -17.295889373202716 2.0192767580880124 7.500913497223658 0 0 0 
	 326 33 2 -16.512551734995576 1.7175629540413044 7.966693407713285 0 0 0 
	 328 33 2 -18.933557039393236 2.3057205997154147 7.472725898747886 0 0 0 
	 329 33 2 -19.787887067376616 2.290450637296109 7.910318210761741 0 0 0 
	 324 33 3 -17.8958300044879 3.1398652921719217 4.701422011933373 0 0 0 
	 327 33 3 -16.055604779374743 1.5415632350140582 8.2383983554989 0 0 0 
	 330 33 3 -20.286246250366922 2.281543159218181 8.165580392769822 0 0 0 
	 331 34 1 -5.522922331992395 13.873349737177874 13.814613557533889 0 0 0 
	 332 34 2 -5.562592709063267 13.090086737349516 13.260966256192196 0 0 0 
	 333 34 2 -5.602263086134139 12.30682373752116 12.707318954850503 0 0 0 
	 335 34 2 -4.764503508855663 14.459650312662083 13.763110898391083 0 0 0 
	 336 34 2 -4.006084685718931 15.045950888146292 13.71160823924828 0 0 0 
	 338 34 2 -6.241670778058254 14.070312161522022 14.419763518018385 0 0 0 
	 339 34 2 -6.960419224124114 14.26727458586617 15.024913478502882 0 0 0 
	 334 34 4 -5.6254041394254815 11.849920320954618 12.384358029067851 0 0 0 
	 337 34 4 -3.5636737055558374 15.387959557178746 13.681565021414977 0 0 0 
	 340 34 4 -7.3796891509958655 14.382169333400256 15.377917622118838 0 0 0 
	 341 35 1 -18.727770983544914 13.452324701498032 -12.064847170687752 0 0 0 
	 342 35 2 -17.823637362086043 13.640562601800491 -11.802723368950119 0 0 0 
	 343 35 2 -16.919503740627174 13.82880050210295 -11.540599567212487 0 0 0 
	 345 35 2 -19.06901484235433 12.557161512582 -12.00291580517286 0 0 0 
	 346 35 2 -19.41025870116375 11.66199832366597 -11.940984439657969 0 0 0 
	 348 35 2 -19.290660746194366 14.159249990111604 -12.388902337940277 0 0 0 
	 349 35 2 -19.853550508843817 14.866175278725176 -12.7129575051928 0 0 0 
	 344 35 3 -16.392092461442832 13.938605943946053 -11.387694016198868 0 0 0 
	 347 35 3 -19.609317618802578 11.139819796798285 -11.904857809774281 0 0 0 
	 350 35 3 -20.181902870389333 15.27854836374976 -12.901989686090108 0 0 0 
	 351 36 1 -7.390896705578879 16.99583205653933 20.101943683016604 0 0 0 
	 352 36 2 -6.956139064301347 17.20270670885176 19.271408511225903 0 0 0 
	 353 36 2 -6.521381423023814 17.409581361164193 18.440873339435203 0 0 0 
	 355 36 2 -8.247423191274596 16.56228847304092 20.100413810767385 0 0 0 
	 356 36 2 -9.103949676970313 16.128744889542507 20.098883938518163 0 0 0 
	 358 36 2 -6.969127861160693 17.222500987725315 20.934008727056522 0 0 0 
	 359 36 2 -6.547359016742508 17.449169918911295 21.766073771096444 0 0 0 
	 354 36 4 -6.267772798945254 17.53025824167978 17.95639448922396 0 0 0 
	 357 36 4 -9.603590126959482 15.8758444658351 20.097991513039453 0 0 0 
	 360 36 4 -6.3013271908319 17.58139346210312 22.251445046786394 0 0 0 
	 361 37 1 21.150312356383083 14.366555760008852 1.5369826890414502 0 0 0 
	 362 37 2 20.57748861810653 14.38867844465918 0.7669284366080688 0 0 0 
	 363 37 2 20.00466487982997 14.410801129309506 -0.0031258158253126833 0 0 0 
	 365 37 2 21.169582327341082 15.111301475167014 2.1424432476023147 0 0 0 
	 366 37 2 21.188852298299082 15.856047190325178 2.7479038061631798 0 0 0 
	 368 37 2 21.70386612370164 13.599687360200363 1.701576382913967 0 0 0 
	 369 37 2 22.257419891020195 12.832818960391872 1.866170076786484 0 0 0 
	 364 37 3 19.67051769916865 14.423706028688864 -0.4523241297447851 0 0 0 
	 367 37 3 21.20009311469125 16.290482190834105 3.101089131990351 0 0 0 
	 370 37 3 22.580326255289354 12.385479060503588 1.962183064878785 0 0 0 
	 371 38 1 -0.29747664628352055 14.983520172372648 0.002956007074850664 0 0 0 
	 372 38 2 0.13967100331381793 14.66053896665628 -0.7883625591205368 0 0 0 
	 373 38 2 0.5768186529111564 14.337557760939912 -1.5796811253159242 0 0 0 
	 375 38 2 0.08768599280103195 15.707023773224531 0.5027482449175199 0 0 0 
	 376 38 2 0.47284863188558446 16.430527374076412 1.0025404827601891 0 0 0 
	 378 38 2 -1.119786934965411 14.582997777237134 0.29448233542756896 0 0 0 
	 379 38 2 -1.9420972236473015 14.18247538210162 0.5860086637802873 0 0 0 
	 374 38 4 0.8318214485096038 14.149152057605363 -2.041283622263234 0 0 0 
	 377 38 4 0.6975268380182397 16.85257114124001 1.2940859548350794 0 0 0 
	 380 38 4 -2.4217782253784046 13.94883731827257 0.7560656886527064 0 0 0 
	 381 39 1 10.909924672185454 7.398951398733094 11.88321072359317 0 0 0 
	 382 39 2 10.191734623504654 7.3789871791716415 12.519924539929184 0 0 0 
	 383 39 2 9.473544574823855 7.359022959610188 13.1566383562652 0 0 0 
	 385 39 2 11.485256746075086 6.636810117258891 11.78455135086703 0 0 0 
	 386 39 2 12.060588819964718 5.874668835784689 11.68589197814089 0 0 0 
	 388 39 2 11.052782646976622 8.181056899768748 11.345156279983295 0 0 0 
	 389 39 2 11.19564062176779 8.963162400804404 10.807101836373418 0 0 0 
	 384 39 3 9.054600379760055 7.347377164866008 13.528054749127875 0 0 0 
	 387 39 3 12.396199196400337 5.430086421591405 11.628340677383976 0 0 0 
	 390 39 3 11.278974440395972 9.41939060974187 10.493236744267657 0 0 0 
	 391 40 1 -13.292537720085777 9.906038501393256 -10.669968711197392 0 0 0 
	 392 40 2 -14.14712397210487 10.342380820914475 -10.69976330894267 0 0 0 
	 393 40 2 -15.001710224123961 10.778723140435693 -10.72955790668795 0 0 0 
	 395 40 2 -12.901018620570643 9.561744229811936 -11.476054469210238 0 0 0 
	 396 40 2 -12.509499521055508 9.217449958230615 -12.282140227223085 0 0 0 
	 398 40 2 -12.829470567581819 9.813990453453359 -9.834088355439267 0 0 0 