LAMMPS FENE chain data file 

1000  atoms          
900  bonds          
900  angles         
0  dihedrals      
0  impropers    

4  atom types     
2  bond types     
2  angle types    
0  dihedral types 
0  improper types 

-12.500000 12.500000 xlo xhi  
-12.500000 12.500000 ylo yhi  
-12.500000 12.500000 zlo zhi  

Masses

	 1 1.0 
	 2 1.0 
	 3 1.0 
	 4 1.0 

Atoms 

	 1 1 1 -8.833436194005074 -3.6680583475094592 -8.543021288662809 0 0 0 
	 2 1 2 -8.52420430557848 -3.208908550039733 -9.3273408043346 0 0 0 
	 3 1 2 -8.214972417151888 -2.7497587525700067 -10.11166032000639 0 0 0 
	 5 1 2 -9.228344581218403 -4.539554652168055 -8.621389373206059 0 0 0 
	 6 1 2 -9.623252968431732 -5.411050956826653 -8.699757457749309 0 0 0 
	 8 1 2 -8.747759695218338 -3.2557118403205894 -7.680333688447768 0 0 0 
	 9 1 2 -8.662083196431603 -2.8433653331317195 -6.817646088232728 0 0 0 
	 4 1 3 -8.034587148903041 -2.4819213707126666 -10.569180037481601 0 0 0 
	 7 1 3 -9.853616194306174 -5.919423801210834 -8.745472173732871 0 0 0 
	 10 1 3 -8.612105238806008 -2.6028298706048782 -6.314411654773954 0 0 0 
	 11 2 1 -1.3885028285627183 -6.870779467911939 7.306943563129173 0 0 0 
	 12 2 2 -1.7919116867422584 -6.093434143725016 7.700129956722603 0 0 0 
	 13 2 2 -2.195320544921798 -5.316088819538093 8.093316350316032 0 0 0 
	 15 2 2 -1.1308999651769338 -6.86213577258687 6.382191676779882 0 0 0 
	 16 2 2 -0.8732971017911495 -6.853492077261802 5.457439790430591 0 0 0 
	 18 2 2 -1.2426968337689628 -7.65676848742393 7.8385090558850345 0 0 0 
	 19 2 2 -1.096890838975207 -8.442757506935923 8.370074548640895 0 0 0 
	 14 2 4 -2.4306423788598632 -4.862637380429055 8.3226750799122 0 0 0 
	 17 2 4 -0.7230287648161084 -6.848449921655512 4.9180011900601714 0 0 0 
	 20 2 4 -1.0118373420121827 -8.901251101651251 8.680154419415148 0 0 0 
	 21 3 1 5.723512076717224 4.768351672596435 -10.021128662695086 0 0 0 
	 22 3 2 5.011804346577119 4.455815777725448 -9.4577518604783 0 0 0 
	 23 3 2 4.300096616437013 4.143279882854461 -8.894375058261517 0 0 0 
	 25 3 2 5.852101057214462 5.710373648519369 -10.154017604947384 0 0 0 
	 26 3 2 5.9806900377117005 6.652395624442301 -10.286906547199681 0 0 0 
	 28 3 2 6.306630826360092 4.138865591544491 -10.451616522659572 0 0 0 
	 29 3 2 6.889749576002959 3.5093795104925456 -10.882104382624057 0 0 0 
	 24 3 3 3.884933773855285 3.9609672775130518 -8.565738590301725 0 0 0 
	 27 3 3 6.055700276335089 7.201908443730678 -10.364425096846857 0 0 0 
	 30 3 3 7.229902179961298 3.1421792965455775 -11.133222300936675 0 0 0 
	 31 4 1 0.32798855396319604 9.073610548687338 -1.0218517997262393 0 0 0 
	 32 4 2 0.21875210637753428 8.41177125772207 -0.3350940903021248 0 0 0 
	 33 4 2 0.10951565879187256 7.749931966756802 0.35166361912198973 0 0 0 
	 35 4 2 1.2078566791213492 9.313698927538905 -1.3215010157624283 0 0 0 
	 36 4 2 2.0877248042795022 9.553787306390472 -1.6211502317986175 0 0 0 
	 38 4 2 -0.4426431236092949 9.495361460801039 -1.4089602931141647 0 0 0 
	 39 4 2 -1.213274801181786 9.917112372914739 -1.7960687865020901 0 0 0 
	 34 4 4 0.04579439770023652 7.363859047027063 0.7522722829527233 0 0 0 
	 37 4 4 2.6009812106217587 9.693838860720552 -1.7959456078197276 0 0 0 
	 40 4 4 -1.6628099464324055 10.163133738314398 -2.021882074311713 0 0 0 
	 41 5 1 -7.020760965323942 8.530127838921025 2.2247160120202265 0 0 0 
	 42 5 2 -6.665944301155398 8.006133615711882 2.9466129498664486 0 0 0 
	 43 5 2 -6.311127636986855 7.48213939250274 3.66850988771267 0 0 0 
	 45 5 2 -7.967932622012742 8.555530355712863 2.070376888963129 0 0 0 
	 46 5 2 -8.915104278701543 8.580932872504698 1.9160377659060277 0 0 0 
	 48 5 2 -6.428405972803686 9.028719545338333 1.6571581972311038 0 0 0 
	 49 5 2 -5.8360509802834315 9.527311251755641 1.0896003824419784 0 0 0 
	 44 5 3 -6.104151249555203 7.17647609563074 4.089616434789633 0 0 0 
	 47 5 3 -9.467621078436677 8.595751007299938 1.826006610789387 0 0 0 
	 50 5 3 -5.490510567979952 9.818156413832405 0.7585249904816549 0 0 0 
	 51 6 1 5.958203176549834 10.972183947181607 4.66394902399547 0 0 0 
	 52 6 2 5.047556930738687 10.809723537621043 4.920717461143571 0 0 0 
	 53 6 2 4.136910684927541 10.647263128060478 5.177485898291672 0 0 0 
	 55 6 2 6.151445091068372 11.536343319892923 3.911631428391603 0 0 0 
	 56 6 2 6.344687005586911 12.10050269260424 3.1593138327877357 0 0 0 
	 58 6 2 6.675607507842441 10.570484984030855 5.159498182451236 0 0 0 
	 59 6 2 7.393011839135049 10.168786020880106 5.655047340907002 0 0 0 
	 54 6 4 3.6057003748710383 10.552494555816814 5.327267486628065 0 0 0 
	 57 6 4 6.457411455722726 12.429595660019174 2.7204619020188137 0 0 0 
	 60 6 4 7.811497699055736 9.934461625708833 5.944117683339531 0 0 0 
	 61 7 1 0.9887703696205452 -6.21266927971423 -4.990059723773441 0 0 0 
	 62 7 2 0.03407459529352552 -6.1865472735470854 -4.892727204665306 0 0 0 
	 63 7 2 -0.9206211790334942 -6.1604252673799405 -4.79539468555717 0 0 0 
	 65 7 2 1.386309554296868 -6.7466704787645195 -5.681728225340295 0 0 0 
	 66 7 2 1.7838487389731905 -7.280671677814809 -6.37339672690715 0 0 0 
	 68 7 2 1.5459269592712424 -5.704790086831087 -4.395723741314722 0 0 0 
	 69 7 2 2.1030835489219397 -5.196910893947943 -3.801387758856003 0 0 0 
	 64 7 3 -1.4775270473909223 -6.145187430449106 -4.738617382744092 0 0 0 
	 67 7 3 2.0157465967010455 -7.59217237726081 -6.776870019487815 0 0 0 
	 70 7 3 2.4280915595515125 -4.900648031432776 -3.4546917690884165 0 0 0 
	 71 8 1 7.3283659689699405 7.736131195386192 6.985463011688936 0 0 0 
	 72 8 2 8.167746677191055 7.574540538943474 6.548509368362059 0 0 0 
	 73 8 2 9.00712738541217 7.412949882500755 6.111555725035183 0 0 0 
	 75 8 2 7.281081570572083 8.34965521124663 7.722316095845224 0 0 0 
	 76 8 2 7.233797172174226 8.963179227107068 8.459169180001513 0 0 0 
	 78 8 2 6.536269659146684 7.284197835968473 6.685563570859525 0 0 0 
	 79 8 2 5.744173349323427 6.832264476550754 6.385664130030113 0 0 0 
	 74 8 4 9.496766131874487 7.318688666242503 5.8566660997611715 0 0 0 
	 77 8 4 7.206214606442142 9.32106823635899 8.889000145759347 0 0 0 
	 80 8 4 5.282117168593193 6.568636683557084 6.21072278954629 0 0 0 
	 81 9 1 -9.99507677219579 -3.0943662209974843 -3.5169345806438868 0 0 0 
	 82 9 2 -9.271363973636108 -3.107257997721164 -4.147548239942363 0 0 0 
	 83 9 2 -8.547651175076421 -3.1201497744448434 -4.778161899240843 0 0 0 
	 85 9 2 -9.880442422046173 -2.6703194180704473 -2.663328538787849 0 0 0 
	 86 9 2 -9.765808071896554 -2.2462726151434094 -1.8097224969318098 0 0 0 
	 88 9 2 -10.833423920905092 -3.5055212472008437 -3.7399269632014476 0 0 0 
	 89 9 2 -11.671771069614394 -3.9166762734042013 -3.962919345759007 0 0 0 
	 84 9 3 -8.125485375916606 -3.1276699775336563 -5.146019867164956 0 0 0 
	 87 9 3 -9.698938034309274 -1.9989119801026387 -1.3117856391824545 0 0 0 
	 90 9 3 -12.16080690636149 -4.156516705356161 -4.0929982355842505 0 0 0 
	 91 10 1 8.63275983205135 7.909986910786213 -3.236576127594462 0 0 0 
	 92 10 2 9.34723751600788 8.280706840282537 -3.7597284696539743 0 0 0 
	 93 10 2 10.06171519996441 8.651426769778864 -4.282880811713486 0 0 0 
	 95 10 2 7.7904701984411195 8.367337515815112 -3.1819996015741787 0 0 0 
	 96 10 2 6.9481805648308885 8.82468812084401 -3.127423075553896 0 0 0 
	 98 10 2 8.760571781705051 7.081916376260988 -2.768000311555233 0 0 0 
	 99 10 2 8.888383731358752 6.253845841735764 -2.2994244955160044 0 0 0 
	 94 10 4 10.478493848939053 8.867680061985052 -4.588053011248201 0 0 0 
	 97 10 4 6.456844945224921 9.091475973777536 -3.0955867687087304 0 0 0 
	 100 10 4 8.962940701990078 5.77080469659605 -2.026088602826454 0 0 0 
	 101 11 1 -6.150057328728565 6.8782628588121595 -8.238384076286795 0 0 0 
	 102 11 2 -5.656624079781561 6.174951625639861 -8.666726157020484 0 0 0 
	 103 11 2 -5.163190830834557 5.471640392467563 -9.095068237754171 0 0 0 
	 105 11 2 -7.010048572472637 7.136787489662621 -8.577765979055869 0 0 0 
	 106 11 2 -7.870039816216709 7.395312120513082 -8.917147881824944 0 0 0 
	 108 11 2 -5.783499333931497 7.323049461133997 -7.470660092784034 0 0 0 
	 109 11 2 -5.416941339134429 7.767836063455833 -6.702936109281272 0 0 0 
	 104 11 3 -4.875354768948805 5.061375506450389 -9.34493445151549 0 0 0 
	 107 11 3 -8.371701375067417 7.546118155175851 -9.115120658440237 0 0 0 
	 110 11 3 -5.203115842169473 8.02729491481024 -6.255097118904661 0 0 0 
	 111 12 1 -5.75627347682638 -2.793898375685284 9.678859473820554 0 0 0 
	 112 12 2 -5.837392675885305 -2.442333056648218 10.568478213503125 0 0 0 
	 113 12 2 -5.918511874944232 -2.090767737611153 11.458096953185695 0 0 0 
	 115 12 2 -6.08019055579287 -2.286699904585011 8.930910654136103 0 0 0 
	 116 12 2 -6.404107634759358 -1.779501433484739 8.182961834451653 0 0 0 
	 118 12 2 -5.351237198800965 -3.652662165822622 9.537189553822435 0 0 0 
	 119 12 2 -4.946200920775555 -4.51142595595996 9.395519633824316 0 0 0 
	 114 12 4 -5.965831407728603 -1.8856879681728627 11.977041218000528 0 0 0 
	 117 12 4 -6.5930592641564765 -1.483635658676246 7.746658356302389 0 0 0 
	 120 12 4 -4.709929758594064 -5.012371500206743 9.312878847158748 0 0 0 
	 121 13 1 -3.053307060078314 0.5341589562347121 4.266101145358067 0 0 0 
	 122 13 2 -3.617955969541007 -0.2353145099265076 4.369455844895291 0 0 0 
	 123 13 2 -4.1826048790037 -1.0047879760877274 4.472810544432515 0 0 0 
	 125 13 2 -3.4432269277235714 1.4055770908209362 4.1651410961813236 0 0 0 
	 126 13 2 -3.8331467953688287 2.2769952254071604 4.064181047004579 0 0 0 
	 128 13 2 -2.0987382829703645 0.43221428780970805 4.263706494997586 0 0 0 
	 129 13 2 -1.1441695058624146 0.33026961938470406 4.261311844637106 0 0 0 
	 124 13 3 -4.511983409523604 -1.4536474980151057 4.533100785829229 0 0 0 
	 127 13 3 -4.0606000514952285 2.7853224705824573 4.005287684984813 0 0 0 
	 130 13 3 -0.5873377192161104 0.2708018961367847 4.259914965260159 0 0 0 
	 131 14 1 -8.526739468588865 0.7134834969471843 7.193120351626519 0 0 0 
	 132 14 2 -8.354801982521277 0.5881039058422811 6.2570020583434935 0 0 0 
	 133 14 2 -8.18286449645369 0.46272431473737796 5.320883765060468 0 0 0 
	 135 14 2 -8.329614710049807 1.556112662261138 7.608713806018221 0 0 0 
	 136 14 2 -8.132489951510747 2.3987418275750922 8.024307260409921 0 0 0 
	 138 14 2 -8.89580171319551 -0.003766077261866063 7.713645190517845 0 0 0 
	 139 14 2 -9.264863957802158 -0.7210156514709164 8.234170029409169 0 0 0 
	 134 14 4 -8.08256762958093 0.3895862199261844 4.774814760645369 0 0 0 
	 137 14 4 -8.017500509029631 2.890275507341565 8.266736775471747 0 0 0 
	 140 14 4 -9.480150267156034 -1.139411236426196 8.537809518762442 0 0 0 
	 141 15 1 9.306625588935649 -2.379693224226415 -8.843994955357307 0 0 0 
	 142 15 2 8.762711874695011 -2.933727157100438 -8.279367403173485 0 0 0 
	 143 15 2 8.218798160454371 -3.4877610899744615 -7.714739850989661 0 0 0 
	 145 15 2 9.478837562481896 -2.6417365169724687 -9.751340726766482 0 0 0 
	 146 15 2 9.651049536028143 -2.9037798097185226 -10.658686498175658 0 0 0 
	 148 15 2 9.67832732963004 -1.5636159986063378 -8.501276736131953 0 0 0 
	 149 15 2 10.050029070324433 -0.7475387729862608 -8.1585585169066 0 0 0 
	 144 15 3 7.901515160480665 -3.810947550817642 -7.385373778882431 0 0 0 
	 147 15 3 9.751506520596788 -3.056638397153721 -11.187971531497677 0 0 0 
	 150 15 3 10.266855085729494 -0.2714937247078826 -7.958639555691811 0 0 0 
	 151 16 1 -5.890004513931121 -2.1007306499523453 1.9206990239175186 0 0 0 
	 152 16 2 -5.327628583707454 -2.8600941453162747 1.7512871146143634 0 0 0 
	 153 16 2 -4.7652526534837865 -3.6194576406802046 1.581875205311208 0 0 0 
	 155 16 2 -6.41333834944474 -2.060811957726397 2.7245200205439906 0 0 0 
	 156 16 2 -6.936672184958359 -2.0208932655004483 3.5283410171704626 0 0 0 
	 158 16 2 -5.929046608641169 -1.381285846814364 1.2862899365942022 0 0 0 
	 159 16 2 -5.968088703351218 -0.6618410436763831 0.6518808492708861 0 0 0 
	 154 16 4 -4.437200027519982 -4.062419679642496 1.483051591551034 0 0 0 
	 157 16 4 -7.241950255674636 -1.9976073617019785 3.9972365985359044 0 0 0 
	 160 16 4 -5.990863258598746 -0.242164908512561 0.2818088816656181 0 0 0 
	 161 17 1 3.1606640459561075 7.070761683816299 1.507569726732294 0 0 0 
	 162 17 2 2.2111427379195763 6.933783362781936 1.4722678124612258 0 0 0 
	 163 17 2 1.261621429883045 6.796805041747574 1.4369658981901579 0 0 0 
	 165 17 2 3.529865435921614 7.720119037484265 2.1105832928192214 0 0 0 
	 166 17 2 3.899066825887121 8.369476391152231 2.7135968589061488 0 0 0 
	 168 17 2 3.7409839640271323 6.558382651182695 0.939858074916435 0 0 0 
	 169 17 2 4.321303882098157 6.046003618549091 0.372146423100576 0 0 0 
	 164 17 3 0.7077340001950687 6.716901021144196 1.416373114865368 0 0 0 
	 167 17 3 4.114434303366999 8.748268180791879 3.0653547724568564 0 0 0 
	 170 17 3 4.659823834306255 5.747115849512822 0.04098129287465846 0 0 0 
	 171 18 1 -1.9045687588413491 6.960261973834666 -3.657778817857191 0 0 0 
	 172 18 2 -2.824946496466408 7.219821421870729 -3.7422401286414293 0 0 0 
	 173 18 2 -3.745324234091467 7.479380869906793 -3.8267014394256673 0 0 0 
	 175 18 2 -1.6506573764596115 6.294713569971572 -3.014215043230089 0 0 0 
	 176 18 2 -1.396745994077874 5.6291651661084785 -2.3706512686029875 0 0 0 
	 178 18 2 -1.2381024035980277 7.366250929661697 -4.216881281700054 0 0 0 
	 179 18 2 -0.5716360483547063 7.772239885488727 -4.775983745542916 0 0 0 
	 174 18 4 -4.282211247706085 7.6307905479278295 -3.8759705373831395 0 0 0 
	 177 18 4 -1.24863102102186 5.240928597188341 -1.9952390667371784 0 0 0 
	 180 18 4 -0.1828640077961019 8.009066776387828 -5.1021268494512535 0 0 0 
	 181 19 1 2.545422087670213 -2.5280469379466624 -5.089172142615117 0 0 0 
	 182 19 2 1.8742738335547477 -2.32650856609704 -4.433014916281395 0 0 0 
	 183 19 2 1.203125579439281 -2.124970194247416 -3.776857689947673 0 0 0 
	 185 19 2 2.3061569790514382 -2.5913957378614283 -6.016716824744773 0 0 0 
	 186 19 2 2.066891870432661 -2.6547445377761925 -6.944261506874428 0 0 0 
	 188 19 2 3.455835450404456 -2.6662365098815206 -4.817784686819184 0 0 0 
	 189 19 2 4.366248813138697 -2.8044260818163793 -4.546397231023252 0 0 0 
	 184 19 3 0.8116224312052596 -2.007406144001803 -3.394099307919668 0 0 0 
	 187 19 3 1.9273205570717098 -2.6916980043931393 -7.4853292381167265 0 0 0 
	 190 19 3 4.897323274733672 -2.885036665445046 -4.388087881808957 0 0 0 
	 191 20 1 7.889974634450472 3.781890062141308 6.485938747678185 0 0 0 
	 192 20 2 7.735861063093892 3.745269171275065 5.539097727508546 0 0 0 
	 193 20 2 7.581747491737311 3.7086482804088226 4.5922567073389065 0 0 0 
	 195 20 2 8.378942692901411 3.0790930310286635 6.920204301082979 0 0 0 
	 196 20 2 8.867910751352351 2.376295999916019 7.354469854487773 0 0 0 
	 198 20 2 7.555120147356114 4.521307984120194 6.998514214443031 0 0 0 
	 199 20 2 7.220265660261755 5.260725906099081 7.511089681207876 0 0 0 
	 194 20 4 7.491847908445973 3.687286094070181 4.039932778906617 0 0 0 
	 197 20 4 9.153142118782066 1.96633106510031 7.607791427307236 0 0 0 
	 200 20 4 7.024933876123379 5.692053027253432 7.810092036820702 0 0 0 
	 201 21 1 10.122033661235708 8.529005944056209 10.260194683188214 0 0 0 
	 202 21 2 10.64937921979679 8.16232382498553 9.546716662910269 0 0 0 
	 203 21 2 11.176724778357872 7.79564170591485 8.833238642632322 0 0 0 
	 205 21 2 10.411101515845948 9.326378482117011 10.709902155860735 0 0 0 
	 206 21 2 10.700169370456187 10.123751020177815 11.159609628533257 0 0 0 
	 208 21 2 9.305620248064386 8.098315525066086 10.523965230793639 0 0 0 
	 209 21 2 8.489206834893066 7.667625106075963 10.787735778399062 0 0 0 
	 204 21 3 11.484343020851837 7.58174380312362 8.41704313080352 0 0 0 
	 207 21 3 10.868792285645494 10.588885000713283 11.421938987592227 0 0 0 
	 210 21 3 8.012965677209795 7.416389028331725 10.941601931168893 0 0 0 
	 211 22 1 -5.363512770851847 4.041321232578007 -4.574202174671646 0 0 0 
	 212 22 2 -5.199810847490595 3.5488813730040802 -5.381855977356087 0 0 0 
	 213 22 2 -5.036108924129343 3.0564415134301535 -6.189509780040527 0 0 0 
	 215 22 2 -5.546387664922372 4.982866943696111 -4.6148032460097275 0 0 0 
	 216 22 2 -5.729262558992894 5.924412654814214 -4.655404317347806 0 0 0 
	 218 22 2 -5.344339800142576 3.5922153810338315 -3.725947300649126 0 0 0 
	 219 22 2 -5.3251668294333045 3.1431095294896556 -2.8776924266266053 0 0 0 
	 214 22 4 -4.940616135501945 2.769184928678696 -6.660641164939784 0 0 0 
	 217 22 4 -5.835939580534034 6.47364765296644 -4.679088275628351 0 0 0 
	 220 22 4 -5.313982596519563 2.8811311160888864 -2.3828770834468025 0 0 0 
	 221 23 1 -5.949550767392017 -6.11911054461472 -4.783163597708071 0 0 0 
	 222 23 2 -5.971374154030219 -6.023769386301022 -5.738168206768698 0 0 0 
	 223 23 2 -5.993197540668421 -5.928428227987324 -6.6931728158293256 0 0 0 
	 225 23 2 -6.68793176715907 -5.810433822652091 -4.252963465209584 0 0 0 
	 226 23 2 -7.426312766926124 -5.501757100689463 -3.722763332711097 0 0 0 
	 228 23 2 -5.189346380986763 -6.523128424891046 -4.35835912114593 0 0 0 
	 229 23 2 -4.429141994581507 -6.927146305167371 -3.933554644583789 0 0 0 
	 224 23 3 -6.005927849540704 -5.8728125523043335 -7.250258837781359 0 0 0 
	 227 23 3 -7.857035016790238 -5.321695679544597 -3.41347992208698 0 0 0 
	 230 23 3 -3.985689435845109 -7.162823401995228 -3.6857520332558735 0 0 0 
	 231 24 1 4.9954774181348105 -8.63140245094887 -4.037372331071621 0 0 0 
	 232 24 2 4.797546430084762 -7.987828569917554 -3.353094621640854 0 0 0 
	 233 24 2 4.599615442034713 -7.34425468888624 -2.6688169122100804 0 0 0 
	 235 24 2 4.603650875722786 -8.541049394748764 -4.90909951654695 0 0 0 
	 236 24 2 4.21182433331076 -8.450696338548655 -5.780826702022279 0 0 0 
	 238 24 2 5.585234948596887 -9.365329388180294 -3.849922855027066 0 0 0 
	 239 24 2 6.174992479058959 -10.099256325411714 -3.6624733789825097 0 0 0 
	 234 24 4 4.484155699005518 -6.968836591617974 -2.269654915042131 0 0 0 
	 237 24 4 3.9832588502370787 -8.39799038909859 -6.289334226882887 0 0 0 
	 240 24 4 6.519017705161835 -10.527380372130041 -3.5531278512898528 0 0 0 
	 241 25 1 -1.1158354507972064 -8.632203707907554 -1.3226050154821478 0 0 0 
	 242 25 2 -1.9997473029712454 -8.846407184844965 -1.6298780342361274 0 0 0 
	 243 25 2 -2.8836591551452844 -9.060610661782375 -1.9371510529901073 0 0 0 
	 245 25 2 -0.9268581914111056 -7.75680154821819 -0.9768324685005846 0 0 0 
	 246 25 2 -0.7378809320250048 -6.881399388528828 -0.6310599215190213 0 0 0 
	 248 25 2 -0.420900858009268 -9.293402390659505 -1.3611045437097313 0 0 0 
	 249 25 2 0.2740337347786703 -9.954601073411457 -1.3996040719373148 0 0 0 
	 244 25 3 -3.3992744022468075 -9.185562689995866 -2.116393647263262 0 0 0 
	 247 25 3 -0.6276441973831128 -6.370748128710033 -0.4293592691131092 0 0 0 
	 250 25 3 0.6794122472383008 -10.340300305016761 -1.4220621300700715 0 0 0 
	 251 26 1 5.837924668014891 9.510063973768478 -10.229115391904879 0 0 0 
	 252 26 2 6.463434340529347 8.853998275883947 -9.913021339999215 0 0 0 
	 253 26 2 7.088944013043804 8.197932577999415 -9.596927288093552 0 0 0 
	 255 26 2 5.8217127132956445 10.3860451291132 -9.836694459734959 0 0 0 
	 256 26 2 5.8055007585763985 11.26202628445792 -9.44427352756504 0 0 0 
	 258 26 2 5.22862695021968 9.290148516308289 -10.937630375980461 0 0 0 
	 259 26 2 4.6193292324244695 9.0702330588481 -11.646145360056043 0 0 0 
	 254 26 4 7.4538246553439045 7.815227587566772 -9.412539091148583 0 0 0 
	 257 26 4 5.796043784990172 11.77301529174234 -9.215361317132587 0 0 0 
	 260 26 4 4.263905563710596 8.941949041996322 -12.059445767433466 0 0 0 
	 261 27 1 -6.715106885455279 -9.990005532255394 -0.8482931674230226 0 0 0 
	 262 27 2 -5.798306431075138 -9.709536417725376 -0.8974256683070152 0 0 0 
	 263 27 2 -4.8815059766949975 -9.42906730319536 -0.9465581691910078 0 0 0 
	 265 27 2 -7.247325002293315 -10.033006362192772 -1.6460994125314898 0 0 0 
	 266 27 2 -7.77954311913135 -10.07600719213015 -2.4439056576399567 0 0 0 
	 268 27 2 -7.099689222997385 -10.227473816848033 -0.0013544214305634128 0 0 0 
	 269 27 2 -7.48427156053949 -10.46494210144067 0.8455843245618958 0 0 0 
	 264 27 3 -4.346705711639916 -9.265460319719516 -0.9752187947066702 0 0 0 
	 267 27 3 -8.09000368728687 -10.10109100959362 -2.909292633953229 0 0 0 
	 270 27 3 -7.708611257439052 -10.603465267453043 1.339631926390831 0 0 0 
	 271 28 1 -6.430247454495822 5.23139371078773 4.807351568889764 0 0 0 
	 272 28 2 -5.5528264752605185 5.620911286508556 4.810264196969567 0 0 0 
	 273 28 2 -4.675405496025215 6.010428862229383 4.8131768250493705 0 0 0 
	 275 28 2 -6.626194605732622 4.494137184459448 4.2245501204456675 0 0 0 
	 276 28 2 -6.8221417569694225 3.756880658131166 3.64174867200157 0 0 0 
	 278 28 2 -7.111721282494325 5.579132661395185 5.387240389254059 0 0 0 
	 279 28 2 -7.793195110492828 5.92687161200264 5.967129209618352 0 0 0 
	 274 28 4 -4.163576591471288 6.237647448066532 4.814875858095922 0 0 0 
	 277 28 4 -6.936444261857556 3.326814351106335 3.3017811604091802 0 0 0 
	 280 28 4 -8.190721510158621 6.129719333190322 6.30539768816419 0 0 0 
	 281 29 1 4.036166366620665 8.353332010059336 8.456013307789611 0 0 0 
	 282 29 2 4.218154012313018 8.84193348916996 7.649943154870982 0 0 0 
	 283 29 2 4.4001416580053725 9.330534968280585 6.8438730019523515 0 0 0 
	 285 29 2 4.751740530077729 8.137816423089589 9.058596620175383 0 0 0 
	 286 29 2 5.467314693534792 7.922300836119843 9.661179932561158 0 0 0 
	 288 29 2 3.138604557471248 8.080246117918454 8.65950014832247 0 0 0 
	 289 29 2 2.24104274832183 7.807160225777576 8.86298698885533 0 0 0 
	 284 29 3 4.506301117992579 9.615552497761783 6.373665412749816 0 0 0 
	 287 29 3 5.884732955551412 7.796583410387491 10.012686864786192 0 0 0 
	 290 29 3 1.7174650263180036 7.647860122028727 8.98168764583283 0 0 0 
	 291 30 1 2.093099088176395 2.5398511725081727 -0.2553247727301672 0 0 0 
	 292 30 2 1.650056435815437 3.384241849367739 -0.14434012054072878 0 0 0 
	 293 30 2 1.207013783454479 4.2286325262273055 -0.033355468351290385 0 0 0 
	 295 30 2 1.8607530375986738 1.968961149585964 -0.9913274184515091 0 0 0 
	 296 30 2 1.6284069870209525 1.3980711266637553 -1.7273300641728508 0 0 0 
	 298 30 2 2.7684877911150743 2.266350518570815 0.3696932208017357 0 0 0 
	 299 30 2 3.443876494053753 1.992849864633457 0.9947112143336386 0 0 0 
	 294 30 4 0.9485722362439202 4.721193754395386 0.031385578759215105 0 0 0 
	 297 30 4 1.4928717908506153 1.0650519466258004 -2.1566649408436334 0 0 0 
	 300 30 4 3.8378532374346497 1.8333078165033316 1.3593050438939156 0 0 0 
	 301 31 1 0.010233291273293643 -10.080982718456912 -6.924744191571017 0 0 0 
	 302 31 2 0.1293162556454852 -10.101844112764251 -5.972387089521641 0 0 0 
	 303 31 2 0.24839922001767722 -10.122705507071588 -5.020029987472265 0 0 0 
	 305 31 2 0.7741302479003254 -10.11881135856485 -7.504942807256667 0 0 0 
	 306 31 2 1.538027204527356 -10.15663999867279 -8.085141422942314 0 0 0 
	 308 31 2 -0.8727466297259276 -10.022292684041632 -7.296902677934745 0 0 0 
	 309 31 2 -1.755726550725151 -9.963602649626353 -7.669061164298471 0 0 0 
	 304 31 3 0.3178642825681224 -10.134874653750868 -4.464488344610132 0 0 0 
	 307 31 3 1.9836337625597906 -10.17870670540242 -8.42359061542561 0 0 0 
	 310 31 3 -2.270798171308031 -9.929366796217442 -7.88615361467731 0 0 0 
	 311 32 1 6.603607731307315 8.525109078167977 1.2842855018430717 0 0 0 
	 312 32 2 7.199992844865415 8.382521446510696 0.5456424462169731 0 0 0 
	 313 32 2 7.796377958423514 8.239933814853416 -0.19300060940912545 0 0 0 
	 315 32 2 6.954727385640035 8.627228524465945 2.1719152709636593 0 0 0 
	 316 32 2 7.305847039972755 8.729347970763913 3.059545040084247 0 0 0 
	 318 32 2 5.6561029634164965 8.565577263527292 1.135298788348583 0 0 0 
	 319 32 2 4.708598195525677 8.606045448886604 0.9863120748540942 0 0 0 
	 314 32 4 8.144269274665739 8.156757696386668 -0.6238757251910163 0 0 0 
	 317 32 4 7.510666838333508 8.78891764777106 3.5773290720712567 0 0 0 
	 320 32 4 4.1558870809226995 8.629651890346205 0.8994031586489757 0 0 0 
	 321 33 1 1.8690244466780663 -5.599461716368052 5.402436838441286 0 0 0 
	 322 33 2 1.947273843894815 -6.234964411122088 6.117708365062869 0 0 0 
	 323 33 2 2.0255232411115642 -6.870467105876124 6.832979891684456 0 0 0 
	 325 33 2 2.1785531903080884 -5.826588163243248 4.522547337426147 0 0 0 
	 326 33 2 2.4880819339381115 -6.053714610118444 3.642657836411009 0 0 0 
	 328 33 2 1.481246305831295 -4.73683257473882 5.5670548128348365 0 0 0 
	 329 33 2 1.0934681649845235 -3.874203433109589 5.731672787228389 0 0 0 
	 324 33 3 2.0711687228213345 -7.241177011149312 7.250221615547048 0 0 0 
	 327 33 3 2.668640367722291 -6.186205037462309 3.1293889608188454 0 0 0 
	 330 33 3 0.8672642494905733 -3.3710031004925374 5.827699938957961 0 0 0 
	 331 34 1 6.79104680656553 1.4197550619251575 -7.121885269736671 0 0 0 
	 332 34 2 6.917425373811718 0.8521164745430063 -7.885701276282488 0 0 0 
	 333 34 2 7.043803941057913 0.28447788716085576 -8.649517282828306 0 0 0 
	 335 34 2 7.054215988702072 1.1166837972182126 -6.249824612395386 0 0 0 
	 336 34 2 7.317385170838614 0.8136125325112677 -5.377763955054098 0 0 0 
	 338 34 2 6.401499057182795 2.2904649140142532 -7.230129920532144 0 0 0 
	 339 34 2 6.011951307800061 3.1611747661033482 -7.338374571327614 0 0 0 
	 334 34 4 7.117524771951523 -0.04664462214539755 -9.095076619980027 0 0 0 
	 337 34 4 7.4709005270849325 0.6368209614322187 -4.869061904938349 0 0 0 
	 340 34 4 5.784715120660134 3.6690888464886524 -7.401517284291635 0 0 0 
	 341 35 1 7.7352891928623855 6.670360801699507 -7.452708421104473 0 0 0 
	 342 35 2 8.178077583222443 5.890357435372617 -7.110461156862569 0 0 0 
	 343 35 2 8.6208659735825 5.1103540690457265 -6.768213892620665 0 0 0 
	 345 35 2 6.971734335366804 6.575758195425003 -8.026846319593133 0 0 0 
	 346 35 2 6.208179477871224 6.4811555891504975 -8.600984218081793 0 0 0 
	 348 35 2 8.05605565999791 7.544966774300903 -7.220817786857719 0 0 0 
	 349 35 2 8.376822127133432 8.419572746902299 -6.988927152610963 0 0 0 
	 344 35 3 8.879159201292534 4.655352105355039 -6.568569655146221 0 0 0 
	 347 35 3 5.762772477665469 6.4259707354903695 -8.935897992200177 0 0 0 
	 350 35 3 8.563935899629154 8.92975956425311 -6.853657615967023 0 0 0 
	 351 36 1 -7.656787877777946 10.870142351115089 -9.088232798814854 0 0 0 
	 352 36 2 -7.732439494257461 10.011134412627081 -8.666353438643464 0 0 0 
	 353 36 2 -7.808091110736976 9.152126474139076 -8.244474078472074 0 0 0 
	 355 36 2 -8.352251326959417 11.18087198621284 -9.672508148906427 0 0 0 
	 356 36 2 -9.047714776140886 11.491601621310588 -10.256783498998002 0 0 0 
	 358 36 2 -6.885672812116961 11.418420654505345 -8.92583680889467 0 0 0 
	 359 36 2 -6.114557746455976 11.966698957895602 -8.763440818974486 0 0 0 
	 354 36 4 -7.852221220350026 8.65103851002107 -7.9983777850387625 0 0 0 
	 357 36 4 -9.453401788163411 11.67286057511761 -10.59761078655142 0 0 0 
	 360 36 4 -5.664740624820401 12.286527968206585 -8.668709824854378 0 0 0 
	 361 37 1 6.323888838205834 -0.25311155719699263 5.301590565812704 0 0 0 
	 362 37 2 6.410050642650227 0.6908946616625262 5.149839446510608 0 0 0 
	 363 37 2 6.496212447094621 1.6349008805220464 4.998088327208512 0 0 0 
	 365 37 2 6.609390864136916 -0.8754685385519494 4.628715851658582 0 0 0 
	 366 37 2 6.8948928900679975 -1.4978255199069066 3.955841137504459 0 0 0 
	 368 37 2 5.952225007830358 -0.5747607947015552 6.126216399268924 0 0 0 
	 369 37 2 5.580561177454881 -0.8964100322061159 6.950842232725141 0 0 0 
	 364 37 3 6.546473499687185 2.1855711748567668 4.9095668409489575 0 0 0 
	 367 37 3 7.061435738527797 -1.860867092363966 3.5633308875812215 0 0 0 
	 370 37 3 5.36375727640252 -1.0840387540837773 7.431873968907935 0 0 0 
	 371 38 1 8.176042955478234 2.9638549526784628 0.3323294309662781 0 0 0 
	 372 38 2 8.86766473378363 2.4601058685005577 -0.10298215395147181 0 0 0 
	 373 38 2 9.559286512089024 1.95635678432265 -0.5382937388692213 0 0 0 
	 375 38 2 8.40632376259663 3.6909071867356182 0.9153952924479805 0 0 0 
	 376 38 2 8.636604569715026 4.417959420792774 1.498461153929683 0 0 0 
	 378 38 2 7.2541403700544445 2.7405518027992146 0.18457515440232586 0 0 0 
	 379 38 2 6.332237784630653 2.517248652919968 0.03682087783837357 0 0 0 
	 374 38 4 9.962732549433838 1.6625031518855375 -0.7922254967379088 0 0 0 
	 377 38 4 8.770935040534091 4.842073223992782 1.8385829064606758 0 0 0 
	 380 38 4 5.794461276466775 2.3869884821570726 -0.04936911682393236 0 0 0 
	 381 39 1 5.607442959515765 1.3723119298820474 9.303165442367645 0 0 0 
	 382 39 2 4.783639751909131 0.9961974239907798 8.98459652738191 0 0 0 
	 383 39 2 3.9598365443024965 0.6200829180995123 8.666027612396176 0 0 0 
	 385 39 2 6.422825228587746 0.8703917198578699 9.233682652755295 0 0 0 
	 386 39 2 7.238207497659726 0.36847150983369237 9.164199863142944 0 0 0 
	 388 39 2 5.61586389805042 2.2503466457974923 9.69121714696573 0 0 0 
	 389 39 2 5.6242848365850735 3.128381361712937 10.079268851563814 0 0 0 
	 384 39 3 3.479284673198627 0.40068278966293935 8.480195745321163 0 0 0 
	 387 39 3 7.713847154618381 0.07568472065292231 9.123668235869072 0 0 0 
	 390 39 3 5.629197050730289 3.64056827933028 10.305632345912699 0 0 0 
	 391 40 1 -1.7560235937252218 3.9029976026175666 3.2341859669695885 0 0 0 
	 392 40 2 -1.7711930948558479 4.7126302841403405 3.7498067648876825 0 0 0 
	 393 40 2 -1.7863625959864733 5.522262965663112 4.265427562805777 0 0 0 
	 395 40 2 -1.2948069336556918 3.1299896572216594 3.5678593234562963 0 0 0 
	 396 40 2 -0.8335902735861616 2.3569817118257532 3.9015326799430055 0 0 0 
	 398 40 2 -2.2020707526641283 3.866372866490702 2.3848918125647858 0 0 0 
	 399 40 2 -2.648117911603031 3.8297481303638348 1.5355976581599826 0 0 0 
	 394 40 4 -1.7952114716460048 5.994548696551398 4.566206361591331 0 0 0 
	 397 40 4 -0.5645472218789354 1.9060604103448076 4.096175471226918 0 0 0 
	 400 40 4 -2.908312087650726 3.808383700956496 1.0401760680905145 0 0 0 
	 401 41 1 -9.16135401355831 -9.65831968909433 4.746211801220326 0 0 0 