LAMMPS FENE chain data file 

20  atoms          
18  bonds          
18  angles         
0  dihedrals      
0  impropers    

4  atom types     
2  bond types     
2  angle types    
0  dihedral types 
0  improper types 

-3.000000 3.000000 xlo xhi  
-3.000000 3.000000 ylo yhi  
-3.000000 3.000000 zlo zhi  

Masses

	 1 1.0 
	 2 1.0 
	 3 1.0 
	 4 1.0 

Atoms 

	 1 1 1 -1.803866158226984 0.15614830639602806 -0.6846804162046125 0 0 0 
	 2 1 2 -1.397317209718358 0.12759381772372125 0.18451610567245635 0 0 0 
	 3 1 2 -0.990768261209732 0.09903932905141444 1.0537126275495252 0 0 0 
	 5 1 2 -2.087077436771835 -0.657044063762287 -1.1090735603779047 0 0 0 
	 6 1 2 -2.3702887153166863 -1.470236433920602 -1.5334667045511967 0 0 0 
	 8 1 2 -1.9272038281907589 0.9978951652266494 -1.1294837939083893 0 0 0 
	 9 1 2 -2.050541498154534 1.8396420240572708 -1.574287171612166 0 0 0 
	 4 1 3 -0.7536147079130335 0.08238254399256884 1.5607439319778151 0 0 0 
	 7 1 3 -2.5354952944678493 -1.9445986498462857 -1.7810293719856174 0 0 0 
	 10 1 3 -2.122488472300069 2.3306610250418003 -1.8337558086060355 0 0 0 
	 11 2 1 0.32208834339353143 -0.34232065946004053 -0.502867214056299 0 0 0 
	 12 2 2 0.36435627158409006 0.4551917663247652 0.029849739836965188 0 0 0 
	 13 2 2 0.40662419977464676 1.2527041921095694 0.5625666937302298 0 0 0 
	 15 2 2 0.4170176484220772 -1.2025937003160505 -0.08751348261385959 0 0 0 
	 16 2 2 0.5119469534506234 -2.0628667411720585 0.32784024882858065 0 0 0 
	 18 2 2 0.18489111017442564 -0.27956004438883775 -1.4509378993920032 0 0 0 
	 19 2 2 0.04769387695532102 -0.21679942931763527 -2.399008584727709 0 0 0 
	 14 2 4 0.43128049121913997 1.7179197738173757 0.8733182501679686 0 0 0 
	 17 2 4 0.5673223813839445 -2.5646926816713944 0.5701299255033384 0 0 0 
	 20 2 4 -0.03233784242249463 -0.18018907052610025 -2.9520498178402006 0 0 0 


Bonds 

	 1 1 1 2 
	 2 1 2 3 
	 3 1 1 5 
	 4 1 5 6 
	 5 1 1 8 
	 6 1 8 9 
	 7 2 3 4 
	 8 2 6 7 
	 9 2 9 10 
	 10 1 11 12 
	 11 1 12 13 
	 12 1 11 15 
	 13 1 15 16 
	 14 1 11 18 
	 15 1 18 19 
	 16 2 13 14 
	 17 2 16 17 
	 18 2 19 20 


Angles 

	 1 1 2 1 5 
	 2 1 5 1 8 
	 3 1 8 1 2 
	 4 2 1 2 3 
	 5 2 2 3 4 
	 6 2 1 5 6 
	 7 2 5 6 7 
	 8 2 1 8 9 
	 9 2 8 9 10 
	 10 1 12 11 15 
	 11 1 15 11 18 
	 12 1 18 11 12 
	 13 2 11 12 13 
	 14 2 12 13 14 
	 15 2 11 15 16 
	 16 2 15 16 17 
	 17 2 11 18 19 
	 18 2 18 19 20 
