LAMMPS FENE chain data file 

1000  atoms          
900  bonds          
900  angles         
0  dihedrals      
0  impropers    

4  atom types     
2  bond types     
2  angle types    
0  dihedral types 
0  improper types 

-13.000000 13.000000 xlo xhi  
-13.000000 13.000000 ylo yhi  
-13.000000 13.000000 zlo zhi  

Masses

	 1 1.0 
	 2 1.0 
	 3 1.0 
	 4 1.0 

Atoms 

	 1 1 1 5.268670530607757 -5.968016748551938 1.3038004006369086 0 0 0 
	 2 1 2 4.4387261044723685 -5.6733047225439 0.9217832920500831 0 0 0 
	 3 1 2 3.6087816783369804 -5.378592696535862 0.5397661834632577 0 0 0 
	 5 1 2 5.368141216545138 -6.878458046182789 1.591554160312431 0 0 0 
	 6 1 2 5.467611902482519 -7.788899343813641 1.8793079199879534 0 0 0 
	 8 1 2 5.999144270805765 -5.352287476929125 1.3980637495482118 0 0 0 
	 9 1 2 6.729618011003772 -4.736558205306313 1.492327098459515 0 0 0 
	 4 1 3 3.124647429758004 -5.206677348031173 0.3169228701209428 0 0 0 
	 7 1 3 5.525636469279324 -8.319990100764972 2.0471642797986744 0 0 0 
	 10 1 3 7.155727692785943 -4.3773827968596715 1.5473140519911084 0 0 0 
	 11 2 1 -4.972776908626475 7.50335462633371 -1.919416230944198 0 0 0 
	 12 2 2 -4.577531366700754 7.312595115995957 -2.7732263801012245 0 0 0 
	 13 2 2 -4.182285824775032 7.1218356056582035 -3.6270365292582505 0 0 0 
	 15 2 2 -5.821318282238244 7.949847345563428 -1.872280374699667 0 0 0 
	 16 2 2 -6.669859655850013 8.396340064793145 -1.8251445184551363 0 0 0 
	 18 2 2 -4.519481076940428 7.247621417441746 -1.1127419380317027 0 0 0 
	 19 2 2 -4.066185245254381 6.991888208549782 -0.3060676451192075 0 0 0 
	 14 2 4 -3.951725925318361 7.010559224627848 -4.125092449599849 0 0 0 
	 17 2 4 -7.164842123790212 8.65679415101048 -1.797648602312493 0 0 0 
	 20 2 4 -3.8017626767708532 6.842710503362803 0.16449235907974735 0 0 0 
	 21 3 1 -3.941466196470407 -1.7891176461118452 9.677337266165944 0 0 0 
	 22 3 2 -3.347930279577405 -1.5725265105076325 8.95456247735849 0 0 0 
	 23 3 2 -2.754394362684403 -1.35593537490342 8.231787688551034 0 0 0 
	 25 3 2 -4.8601509995903385 -2.0013608637592637 9.49686275528099 0 0 0 
	 26 3 2 -5.77883580271027 -2.2136040814066824 9.316388244396034 0 0 0 
	 28 3 2 -3.6163173102434785 -1.7934655640686394 10.580586565858354 0 0 0 
	 29 3 2 -3.2911684240165497 -1.7978134820254337 11.483835865550763 0 0 0 
	 24 3 3 -2.408165077830152 -1.2295905458009624 7.810169061746685 0 0 0 
	 27 3 3 -6.314735271196897 -2.337412625034343 9.21111144637981 0 0 0 
	 30 3 3 -3.101498240384174 -1.8003497675002302 12.010731290371336 0 0 0 
	 31 4 1 -0.7919879385141531 4.5709901794199315 -3.0908057614540816 0 0 0 
	 32 4 2 -1.115648959116546 4.62737533423636 -3.9928391633073304 0 0 0 
	 33 4 2 -1.439309979718939 4.683760489052789 -4.894872565160579 0 0 0 
	 35 4 2 -0.6181562867274107 5.372733054845175 -2.5922168340379628 0 0 0 
	 36 4 2 -0.44432463494066843 6.174475930270418 -2.0936279066218444 0 0 0 
	 38 4 2 -0.6421585696985024 3.71286214917826 -2.687361287016951 0 0 0 
	 39 4 2 -0.4923292008828517 2.8547341189365882 -2.283916812579821 0 0 0 
	 34 4 4 -1.6281122417370015 4.716651829362372 -5.421058716241641 0 0 0 
	 37 4 4 -0.3429228380650686 6.642159274268477 -1.8027843656291087 0 0 0 
	 40 4 4 -0.4049287357403888 2.3541594346289467 -2.048574202491495 0 0 0 
	 41 5 1 -11.267354453724485 10.249242942786616 -0.1980351580694506 0 0 0 
	 42 5 2 -10.909960480400168 9.870296199130983 0.6083573724665468 0 0 0 
	 43 5 2 -10.552566507075849 9.491349455475351 1.414749903002544 0 0 0 
	 45 5 2 -11.792341945529943 11.052053950347688 -0.1595303585427883 0 0 0 
	 46 5 2 -12.317329437335403 11.854864957908761 -0.121025559016126 0 0 0 
	 48 5 2 -11.099760935243344 9.825378678881176 -1.0429324881321103 0 0 0 
	 49 5 2 -10.932167416762203 9.401514414975736 -1.8878298181947697 0 0 0 
	 44 5 3 -10.344086689303332 9.2702971883429 1.8851455458152093 0 0 0 
	 47 5 3 -12.623572140888587 12.323171378986054 -0.0985644259589063 0 0 0 
	 50 5 3 -10.834404530981537 9.154260261030895 -2.380686594064654 0 0 0 
	 51 6 1 2.087442620875012 -3.787815754954697 -9.66293832232031 0 0 0 
	 52 6 2 2.7889645069485267 -4.265465557143471 -10.111622743521764 0 0 0 
	 53 6 2 3.4904863930220418 -4.743115359332244 -10.560307164723218 0 0 0 
	 55 6 2 2.2586592408741892 -2.9182713037550894 -9.293916214006959 0 0 0 
	 56 6 2 2.429875860873366 -2.048726852555482 -8.924894105693607 0 0 0 
	 58 6 2 1.2147041148023205 -4.17971040396553 -9.583276009432208 0 0 0 
	 59 6 2 0.341965608729629 -4.5716050529763645 -9.503613696544104 0 0 0 
	 54 6 4 3.899707493231592 -5.021744410609029 -10.822039743757399 0 0 0 
	 57 6 4 2.5297522225395523 -1.5414925893557112 -8.709631209177486 0 0 0 
	 60 6 4 -0.16713185314610746 -4.80021026489935 -9.457144014026044 0 0 0 
	 61 7 1 8.865455629873352 7.754809182916559 -2.3596945290535323 0 0 0 
	 62 7 2 9.767931768348134 8.051478932076739 -2.497983644376768 0 0 0 
	 63 7 2 10.670407906822916 8.348148681236918 -2.6362727597000037 0 0 0 
	 65 7 2 8.668368642556667 6.815785469058477 -2.328211450382474 0 0 0 
	 66 7 2 8.47128165523998 5.876761755200396 -2.2967283717114158 0 0 0 
	 68 7 2 8.160066478715256 8.397163147614462 -2.252888492401355 0 0 0 
	 69 7 2 7.45467732755716 9.039517112312364 -2.146082455749177 0 0 0 
	 64 7 3 11.196852320933205 8.521206034913687 -2.7169414103052247 0 0 0 
	 67 7 3 8.356314245971916 5.328997922116515 -2.278363242486632 0 0 0 
	 70 7 3 7.043200322714938 9.414223591719473 -2.08377893436874 0 0 0 
	 71 8 1 11.91207314799061 6.915500834627978 10.303904026376763 0 0 0 
	 72 8 2 11.121862750152864 6.39043196826979 10.450431200410934 0 0 0 
	 73 8 2 10.33165235231512 5.865363101911603 10.596958374445103 0 0 0 
	 75 8 2 12.324093668754434 7.377744127776982 11.037504890885707 0 0 0 
	 76 8 2 12.736114189518258 7.839987420925986 11.771105755394652 0 0 0 
	 78 8 2 12.29026302506453 6.978326407837161 9.423775987833649 0 0 0 
	 79 8 2 12.668452902138451 7.041151981046346 8.543647949290534 0 0 0 
	 74 8 4 9.870696286909768 5.559072929869327 10.68243255929837 0 0 0 
	 77 8 4 12.976459493297156 8.109629341929573 12.19903959302487 0 0 0 
	 80 8 4 12.889063663764905 7.0778002320850355 8.03023992680705 0 0 0 
	 81 9 1 -3.0279221568398795 6.457618640607827 10.830788207219674 0 0 0 
	 82 9 2 -2.415025794946392 7.158583064687577 11.064469455402474 0 0 0 
	 83 9 2 -1.802129433052904 7.859547488767328 11.298150703585273 0 0 0 
	 85 9 2 -3.770151193487686 6.2575179134255725 11.40581495106556 0 0 0 
	 86 9 2 -4.512380230135493 6.057417186243317 11.980841694911446 0 0 0 
	 88 9 2 -2.898589482085561 5.956754943710332 10.02208021519099 0 0 0 
	 89 9 2 -2.7692568073312422 5.455891246812837 9.213372223162304 0 0 0 
	 84 9 3 -1.444606555281703 8.268443402813848 11.434464765025242 0 0 0 
	 87 9 3 -4.945347168180047 5.940691762053668 12.31627396215488 0 0 0 
	 90 9 3 -2.6938127470578896 5.163720756955965 8.741625894478904 0 0 0 
	 91 10 1 -5.119606716961576 -8.710427830174485 -2.7999317576094525 0 0 0 
	 92 10 2 -4.193274539317904 -8.840223313688803 -2.583918264694738 0 0 0 
	 93 10 2 -3.266942361674231 -8.970018797203121 -2.3679047717800232 0 0 0 
	 95 10 2 -5.57502055750416 -9.343037286406606 -3.360291918334637 0 0 0 
	 96 10 2 -6.030434398046743 -9.975646742638727 -3.9206520790598214 0 0 0 
	 98 10 2 -5.590525054062666 -7.948022890428047 -2.4555850897989826 0 0 0 
	 99 10 2 -6.061443391163755 -7.185617950681609 -2.1112384219885127 0 0 0 
	 94 10 4 -2.7265819247154215 -9.04573282925314 -2.2418969009131064 0 0 0 
	 97 10 4 -6.296092471696584 -10.344668925440796 -4.247528839482845 0 0 0 
	 100 10 4 -6.336145754472724 -6.740881735829519 -1.9103695324324055 0 0 0 
	 101 11 1 -7.696581555319426 2.3643977966212066 9.979274916045117 0 0 0 
	 102 11 2 -7.785271484872524 1.6221384961662495 10.581591466775699 0 0 0 
	 103 11 2 -7.873961414425622 0.8798791957112924 11.18390801750628 0 0 0 
	 105 11 2 -7.088179260064927 2.3114541377447586 9.23857010566933 0 0 0 
	 106 11 2 -6.479776964810428 2.2585104788683106 8.497865295293542 0 0 0 
	 108 11 2 -8.216293921020826 3.159600755952612 10.117663175690325 0 0 0 
	 109 11 2 -8.736006286722228 3.9548037152840165 10.25605143533553 0 0 0 
	 104 11 3 -7.925697206664929 0.44689460377923407 11.535259338765783 0 0 0 
	 107 11 3 -6.1248756259119705 2.2276266778570495 8.065787489241 0 0 0 
	 110 11 3 -9.039171833381378 4.4186721082273355 10.336777920128569 0 0 0 
	 111 12 1 -4.136405499099397 -10.731462593027157 -6.873974473116118 0 0 0 
	 112 12 2 -4.576553033324698 -11.088654123183112 -7.6487546734957075 0 0 0 
	 113 12 2 -5.016700567549998 -11.445845653339067 -8.423534873875296 0 0 0 
	 115 12 2 -3.4758547568798734 -11.254178502854495 -6.413495597849713 0 0 0 
	 116 12 2 -2.8153040146603496 -11.776894412681834 -5.953016722583308 0 0 0 
	 118 12 2 -4.35680870709362 -9.851555153043865 -6.559673148002934 0 0 0 
	 119 12 2 -4.577211915087844 -8.971647713060571 -6.2453718228897515 0 0 0 
	 114 12 4 -5.273453295848091 -11.654207379263372 -8.87548999076339 0 0 0 
	 117 12 4 -2.4299827483656276 -12.08181202674778 -5.684404045344571 0 0 0 
	 120 12 4 -4.705780453084474 -8.458368373070318 -6.062029383240394 0 0 0 
	 121 13 1 -0.587008778503388 -7.7077553562631556 -0.27489361525484424 0 0 0 
	 122 13 2 -0.3232534894119415 -7.5430275229987265 0.6333452786625512 0 0 0 
	 123 13 2 -0.05949820032049502 -7.378299689734297 1.5415841725799466 0 0 0 
	 125 13 2 -0.1857019012176112 -8.426801949729684 -0.7683759215914734 0 0 0 
	 126 13 2 0.21560497606816553 -9.145848543196212 -1.2618582279281028 0 0 0 
	 128 13 2 -1.2520709448806109 -7.153436596061056 -0.6896502028356106 0 0 0 
	 129 13 2 -1.9171331112578338 -6.599117835858957 -1.104406790416377 0 0 0 
	 124 13 3 0.09435905164951541 -7.28220845366338 2.0713901940317605 0 0 0 
	 127 13 3 0.4497006544848685 -9.565292389385021 -1.5497229066244695 0 0 0 
	 130 13 3 -2.3050860416445476 -6.275765225741065 -1.346348133171824 0 0 0 
	 131 14 1 -4.508242329601051 5.747231495725483 -8.647237331838076 0 0 0 
	 132 14 2 -5.10914206918222 5.072718237291303 -8.322350632867819 0 0 0 
	 133 14 2 -5.710041808763387 4.398204978857124 -7.997463933897568 0 0 0 
	 135 14 2 -3.559422622474164 5.6170316172616985 -8.580986633610333 0 0 0 
	 136 14 2 -2.610602915347278 5.486831738797914 -8.514735935382593 0 0 0 
	 138 14 2 -4.856162297146771 6.551944632623448 -9.038374729036077 0 0 0 
	 139 14 2 -5.204082264692488 7.35665776952141 -9.429512126234075 0 0 0 
	 134 14 4 -6.0605666568524015 4.004738911437186 -7.807946692831581 0 0 0 
	 137 14 4 -2.057124752856594 5.410881809694039 -8.476089694749742 0 0 0 
	 140 14 4 -5.40703557909416 7.826073766045223 -9.657675607932907 0 0 0 
	 141 15 1 2.7311122101182077 -1.553287624007408 0.8333821123001719 0 0 0 
	 142 15 2 1.9629677364161746 -2.087886186606607 1.047294347546069 0 0 0 
	 143 15 2 1.1948232627141413 -2.6224847492058063 1.261206582791966 0 0 0 
	 145 15 2 2.6337487392203287 -0.6092190198907466 0.6889701139900047 0 0 0 
	 146 15 2 2.5363852683224493 0.33484958422591493 0.5445581156798376 0 0 0 
	 148 15 2 3.59662015471812 -1.96275766552487 0.763881875364442 0 0 0 
	 149 15 2 4.462128099318032 -2.372227707042332 0.694381638428712 0 0 0 
	 144 15 3 0.746738986387955 -2.934333910722006 1.3859887200187393 0 0 0 
	 147 15 3 2.4795899102986865 0.8855562699606336 0.4603177833322398 0 0 0 
	 150 15 3 4.967007733667981 -2.6110852312608515 0.6538398335495363 0 0 0 
	 151 16 1 6.935937173045064 4.811117289983692 5.774413718739518 0 0 0 
	 152 16 2 7.439097675937306 5.182720515247056 5.04616887577591 0 0 0 
	 153 16 2 7.942258178829551 5.554323740510424 4.317924032812304 0 0 0 
	 155 16 2 7.37563712346482 4.271770855345325 6.435752797460674 0 0 0 
	 156 16 2 7.8153370738845735 3.732424420706958 7.09709187618183 0 0 0 
	 158 16 2 5.9930767197330646 4.978860499358692 5.84131948298197 0 0 0 
	 159 16 2 5.0502162664210655 5.146603708733693 5.908225247224422 0 0 0 
	 154 16 4 8.23576847218336 5.771092288580721 3.893114541083535 0 0 0 
	 157 16 4 8.071828711629431 3.417805667167908 7.482873005435833 0 0 0 
	 160 16 4 4.5002143353224 5.244453914202444 5.947253609699186 0 0 0 
	 161 17 1 6.1871305181011795 9.180061934558154 -5.054251726716588 0 0 0 
	 162 17 2 6.821713294918627 9.86098260811541 -5.289308604278148 0 0 0 
	 163 17 2 7.456296071736074 10.541903281672667 -5.524365481839707 0 0 0 
	 165 17 2 5.445775505268391 8.993754569516454 -5.635011841289648 0 0 0 
	 166 17 2 4.7044204924356015 8.807447204474755 -6.215771955862709 0 0 0 
	 168 17 2 6.293902754116521 8.685448626042596 -4.238434734581968 0 0 0 
	 169 17 2 6.400674990131862 8.19083531752704 -3.422617742447349 0 0 0 
	 164 17 3 7.826469358212918 10.9391070079144 -5.661481993750616 0 0 0 
	 167 17 3 4.271963401616475 8.69876790820043 -6.554548689363661 0 0 0 
	 170 17 3 6.462958794474146 7.90231088755963 -2.9467244970354876 0 0 0 
	 171 18 1 -10.44368414764193 -8.530280947559918 9.120175520459842 0 0 0 
	 172 18 2 -10.245417750736614 -9.15861219114325 9.818380564981297 0 0 0 
	 173 18 2 -10.047151353831298 -9.786943434726581 10.516585609502751 0 0 0 
	 175 18 2 -10.398569557689058 -7.5875550951238875 9.295767778040135 0 0 0 
	 176 18 2 -10.353454967736184 -6.644829242687857 9.471360035620428 0 0 0 
	 178 18 2 -10.68706513450012 -8.844675556412616 8.246378218358094 0 0 0 
	 179 18 2 -10.930446121358308 -9.159070165265314 7.3725809162563465 0 0 0 
	 174 18 4 -9.93149595563653 -10.153469993483526 10.923871885473602 0 0 0 
	 177 18 4 -10.327138123597008 -6.094905828766839 9.573788852542265 0 0 0 
	 180 18 4 -11.072418363692252 -9.342467020429389 6.862865823363661 0 0 0 
	 181 19 1 -10.742136719237193 -1.8694763452590881 0.5070019915612152 0 0 0 
	 182 19 2 -9.972737393042395 -1.782041307660768 -0.06043063972744378 0 0 0 
	 183 19 2 -9.203338066847596 -1.694606270062448 -0.6278632710161027 0 0 0 
	 185 19 2 -10.656108995580139 -1.7446721303161545 1.4549593422341576 0 0 0 
	 186 19 2 -10.570081271923085 -1.6198679153732207 2.4029166929071 0 0 0 
	 188 19 2 -11.597563769089044 -2.0817155978003417 0.12647727217693233 0 0 0 
	 189 19 2 -12.452990818940897 -2.293954850341595 -0.2540474472073505 0 0 0 
	 184 19 3 -8.754521793233964 -1.6436024981300947 -0.9588656392678205 0 0 0 
	 187 19 3 -10.519898433123137 -1.5470654566565096 2.9558918141329826 0 0 0 
	 190 19 3 -12.951989931354477 -2.41776108099066 -0.47602020018151603 0 0 0 
	 191 20 1 -6.687262280753736 -3.5540165930505254 1.9937734156796905 0 0 0 
	 192 20 2 -6.846556726073441 -3.641073913286484 2.9364537977199774 0 0 0 
	 193 20 2 -7.005851171393145 -3.728131233522443 3.879134179760264 0 0 0 
	 195 20 2 -5.843756907921499 -3.2215925108916963 1.6781899630019426 0 0 0 
	 196 20 2 -5.000251535089262 -2.8891684287328676 1.3626065103241944 0 0 0 
	 198 20 2 -7.371473208266269 -3.7993833549733953 1.3666764863171514 0 0 0 
	 199 20 2 -8.055684135778801 -4.044750116896266 0.7395795569546124 0 0 0 
	 194 20 4 -7.098772931162973 -3.7789146703267527 4.429031069283765 0 0 0 
	 197 20 4 -4.508206734270457 -2.695254380806884 1.1785161629288416 0 0 0 
	 200 20 4 -8.454807176827778 -4.187880728017939 0.37377301482646486 0 0 0 
	 201 21 1 -4.570585591904977 3.1742576933955253 1.1236744052575651 0 0 0 
	 202 21 2 -5.1715903693394605 2.591419828537182 1.593454439729332 0 0 0 
	 203 21 2 -5.772595146773943 2.0085819636788385 2.0632344742010993 0 0 0 
	 205 21 2 -3.8342642483144473 2.807002329365189 0.629150010951296 0 0 0 
	 206 21 2 -3.097942904723918 2.4397469653348525 0.1346256166450267 0 0 0 
	 208 21 2 -4.705902158061023 4.124350922284204 1.1484187650920672 0 0 0 
	 209 21 2 -4.841218724217068 5.074444151172884 1.1731631249265693 0 0 0 
	 204 21 3 -6.123181266944059 1.6685932091781384 2.337272827642963 0 0 0 
	 207 21 3 -2.6684221209627763 2.2255146696504893 -0.15384694670029675 0 0 0 
	 210 21 3 -4.920153387808096 5.628665201357947 1.187597334830029 0 0 0 
	 211 22 1 10.85476280800132 -8.64898307780672 -2.333615744965482 0 0 0 
	 212 22 2 10.59732917504921 -9.51096070249672 -2.6687612345052707 0 0 0 
	 213 22 2 10.339895542097098 -10.37293832718672 -3.003906724045059 0 0 0 
	 215 22 2 10.547350196437858 -7.852150990010916 -2.771971890252292 0 0 0 
	 216 22 2 10.239937584874394 -7.055318902215111 -3.210328035539102 0 0 0 
	 218 22 2 11.419609052516893 -8.583837540912526 -1.560114110138884 0 0 0 
	 219 22 2 11.984455297032467 -8.51869200401833 -0.7866124753122858 0 0 0 
	 214 22 4 10.189725922875033 -10.875758608255886 -3.1994082596099362 0 0 0 
	 217 22 4 10.060613561462375 -6.590500184334225 -3.4660357869564073 0 0 0 
	 220 22 4 12.313948939666552 -8.48069044083005 -0.33540318833010363 0 0 0 
	 221 23 1 9.561373801560446 1.7335247111081589 -3.9552033241539997 0 0 0 
	 222 23 2 10.336532772036783 2.243688623540489 -4.20109222781133 0 0 0 
	 223 23 2 11.11169174251312 2.753852535972819 -4.446981131468659 0 0 0 
	 225 23 2 9.163042255004909 1.1308160757283983 -4.587401299362194 0 0 0 
	 226 23 2 8.764710708449371 0.5281074403486377 -5.219599274570389 0 0 0 
	 228 23 2 9.184546377639647 1.8260694340555887 -3.0771164452884756 0 0 0 
	 229 23 2 8.807718953718847 1.9186141570030188 -2.1990295664229516 0 0 0 
	 224 23 3 11.563867808624316 3.0514481515583456 -4.590416325268768 0 0 0 
	 227 23 3 8.532350639625308 0.17652740304377734 -5.588381426775169 0 0 0 
	 230 23 3 8.587902956431714 1.972598578722353 -1.6868122204180627 0 0 0 
	 231 24 1 -5.767170354983894 8.972257031400046 9.376289700613087 0 0 0 
	 232 24 2 -5.204597452452474 8.328741866107379 9.81332512409238 0 0 0 
	 233 24 2 -4.642024549921055 7.685226700814711 10.250360547571672 0 0 0 
	 235 24 2 -6.654866977786609 8.727764788439131 9.104594560802685 0 0 0 
	 236 24 2 -7.542563600589325 8.483272545478217 8.832899420992282 0 0 0 
	 238 24 2 -5.442046634712598 9.860264439653628 9.210949416944198 0 0 0 
	 239 24 2 -5.116922914441303 10.748271847907208 9.045609133275308 0 0 0 
	 234 24 4 -4.313857023444394 7.309842854393988 10.505297877934593 0 0 0 
	 237 24 4 -8.060386630557575 8.340652070417685 8.674410589436214 0 0 0 
	 240 24 4 -4.927267410949714 11.266276169388465 8.949160634468456 0 0 0 
	 241 25 1 0.9132530141005597 -3.71027558811892 -0.9239987561549263 0 0 0 
	 242 25 2 -0.04267772591412822 -3.7944469360648054 -0.8973228404266056 0 0 0 
	 243 25 2 -0.9986084659288156 -3.878618284010691 -0.8706469246982842 0 0 0 
	 245 25 2 1.4642513010773774 -4.496350587558768 -0.9333252240959553 0 0 0 
	 246 25 2 2.015249588054196 -5.282425586998616 -0.9426516920369852 0 0 0 
	 248 25 2 1.318185467138429 -2.8400292407331866 -0.9413482039422187 0 0 0 
	 249 25 2 1.7231179201762985 -1.969782893347454 -0.9586976517295112 0 0 0 
	 244 25 3 -1.5562347309373836 -3.927718236979123 -0.8550859738567629 0 0 0 
	 247 25 3 2.33666525545734 -5.74096933667186 -0.9480921316692521 0 0 0 
	 250 25 3 1.9593285177817221 -1.4621391907057766 -0.9688181629387654 0 0 0 
	 251 26 1 3.8370444668863843 -7.709362687901692 -7.228809732542673 0 0 0 
	 252 26 2 3.7091893438340495 -8.313819611855033 -7.963578331894969 0 0 0 
	 253 26 2 3.581334220781715 -8.918276535808376 -8.698346931247267 0 0 0 
	 255 26 2 3.200585134195985 -7.685553804271258 -6.510511288376486 0 0 0 
	 256 26 2 2.5641258015055852 -7.661744920640825 -5.7922128442103 0 0 0 
	 258 26 2 4.601358922629118 -7.128714647578783 -7.212339577356562 0 0 0 
	 259 26 2 5.365673378371852 -6.548066607255874 -7.195869422170452 0 0 0 
	 254 26 4 3.506752065667853 -9.270876408114491 -9.126961947536106 0 0 0 
	 257 26 4 2.192857857436186 -7.647856405189739 -5.373205418446691 0 0 0 
	 260 26 4 5.811523477555113 -6.209355250400845 -7.18626183164522 0 0 0 
	 261 27 1 -6.490580030094087 -1.5800099650337125 -9.64835156805639 0 0 0 
	 262 27 2 -7.4180688964207215 -1.5071862760128285 -9.885123849283572 0 0 0 
	 263 27 2 -8.345557762747356 -1.4343625869919463 -10.121896130510752 0 0 0 
	 265 27 2 -6.107796057220636 -2.441422659304356 -9.466569830083047 0 0 0 
	 266 27 2 -5.725012084347187 -3.302835353574997 -9.284788092109702 0 0 0 
	 268 27 2 -5.945875136640904 -0.791420959783955 -9.593361024802553 0 0 0 
	 269 27 2 -5.401170243187721 -0.002831954534195269 -9.538370481548714 0 0 0 
	 264 27 3 -8.886592934771228 -1.3918821017297627 -10.260013294559943 0 0 0 
	 267 27 3 -5.501721433504338 -3.8053260918995395 -9.178748744958584 0 0 0 
	 270 27 3 -5.083425722006697 0.45717829852816405 -9.506292664650644 0 0 0 
	 271 28 1 4.398592632847393 0.8995332549130499 4.1093443604118765 0 0 0 
	 272 28 2 5.097803876623431 1.554337404077667 4.1720752364935025 0 0 0 
	 273 28 2 5.797015120399468 2.209141553242284 4.234806112575129 0 0 0 
	 275 28 2 3.7966580370938066 0.9102047539552515 3.361573766216599 0 0 0 
	 276 28 2 3.19472344134022 0.920876252997453 2.6138031720213215 0 0 0 
	 278 28 2 4.301315984824942 0.23405760670623144 4.794384078525527 0 0 0 
	 279 28 2 4.204039336802491 -0.43141804150058705 5.479423796639178 0 0 0 
	 274 28 4 6.2048883459354895 2.5911106402549775 4.271399123622744 0 0 0 
	 277 28 4 2.843594927150628 0.927101294105404 2.1776036587407432 0 0 0 
	 280 28 4 4.147294625456062 -0.8196121696212313 5.8790302988721415 0 0 0 
	 281 29 1 -2.3370092476565194 2.7291161251453464 -5.35511665460332 0 0 0 
	 282 29 2 -3.110635432140885 2.331539892146905 -4.94887083538184 0 0 0 
	 283 29 2 -3.884261616625251 1.9339636591484635 -4.54262501616036 0 0 0 
	 285 29 2 -2.4319840475912247 3.2645908617150923 -6.146221321428717 0 0 0 
	 286 29 2 -2.5269588475259304 3.800065598284838 -6.937325988254115 0 0 0 
	 288 29 2 -1.4684082632374484 2.5912176215740423 -4.970257806999402 0 0 0 
	 289 29 2 -0.5998072788183775 2.453319118002738 -4.5853989593954845 0 0 0 
	 284 29 3 -4.335543557574464 1.7020441898993726 -4.305648288281164 0 0 0 
	 287 29 3 -2.5823608141545087 4.112425861283857 -7.398803710568931 0 0 0 
	 290 29 3 -0.09312337124058612 2.3728783242528104 -4.360897964959865 0 0 0 
	 291 30 1 -4.586051755265914 10.074961827334114 -5.092000748153888 0 0 0 
	 292 30 2 -4.906925538104985 10.850533813320366 -5.557970822343085 0 0 0 
	 293 30 2 -5.227799320944055 11.626105799306618 -6.023940896532282 0 0 0 
	 295 30 2 -5.050373047334655 9.238832837927372 -5.175031169116787 0 0 0 
	 296 30 2 -5.5146943394033965 8.402703848520632 -5.258061590079686 0 0 0 
	 298 30 2 -3.8008566803581028 10.135518830754604 -4.543000253001791 0 0 0 
	 299 30 2 -3.0156616054502914 10.196075834175092 -3.993999757849695 0 0 0 
	 294 30 4 -5.414975694266846 12.078522791131931 -6.295756773142648 0 0 0 
	 297 30 4 -5.785548426443495 7.9149619380333665 -5.3064960023080445 0 0 0 
	 300 30 4 -2.5576311450874014 10.231400752837045 -3.673749469010972 0 0 0 
	 301 31 1 6.939092660435831 -6.528641021539679 8.347720865521154 0 0 0 
	 302 31 2 6.056185397913561 -6.3433874496184774 8.019458958081588 0 0 0 
	 303 31 2 5.173278135391287 -6.158133877697272 7.691197050642018 0 0 0 
	 305 31 2 7.107666194974962 -6.538064250126292 9.292757460694054 0 0 0 
	 306 31 2 7.276239729514094 -6.547487478712908 10.237794055866955 0 0 0 
	 308 31 2 7.653426388418971 -6.7044713648742675 7.730946177787824 0 0 0 
	 309 31 2 8.367760116402112 -6.880301708208856 7.114171490054492 0 0 0 
	 304 31 3 4.658248898919963 -6.050069294076571 7.499710937968938 0 0 0 
	 307 31 3 7.374574291328588 -6.552984362055099 10.789065403051145 0 0 0 
	 310 31 3 8.784454791058943 -6.9828694084873675 6.754386255543379 0 0 0 
	 311 32 1 1.4571496705582236 7.203062665176104 8.326644856703135 0 0 0 
	 312 32 2 0.6993373074169293 6.7786739712296615 8.735563746852074 0 0 0 
	 313 32 2 -0.058475055724364955 6.354285277283219 9.144482637001014 0 0 0 
	 315 32 2 1.4726823255522663 8.156812686757476 8.218387603078407 0 0 0 
	 316 32 2 1.488214980546309 9.110562708338847 8.110130349453678 0 0 0 
	 318 32 2 2.1994293787054753 6.673701337541175 8.025983220178924 0 0 0 
	 319 32 2 2.941709086852727 6.144340009906246 7.725321583654714 0 0 0 
	 314 32 4 -0.5005322675567865 6.1067252058144605 9.38301865625456 0 0 0 
	 317 32 4 1.4972756959595006 9.666916887594647 8.046980284839252 0 0 0 
	 320 32 4 3.3747055832719566 5.835545902119204 7.549935629015591 0 0 0 
	 321 33 1 -2.590605332781269 -10.232700267913886 10.999907648006664 0 0 0 
	 322 33 2 -2.4762482747940466 -10.701289277047163 10.169879453420478 0 0 0 
	 323 33 2 -2.361891216806825 -11.169878286180438 9.339851258834294 0 0 0 
	 325 33 2 -3.469603644146538 -10.114838129433293 11.367427014747774 0 0 0 
	 326 33 2 -4.348601955511808 -9.9969759909527 11.734946381488884 0 0 0 
	 328 33 2 -1.8259640794032217 -9.881973397261202 11.46241647585174 0 0 0 
	 329 33 2 -1.0613228260251748 -9.53124652660852 11.924925303696813 0 0 0 
	 324 33 3 -2.2951829329809454 -11.443221874841516 8.855668145325687 0 0 0 
	 327 33 3 -4.861350970474882 -9.928223076839021 11.949332678754532 0 0 0 
	 330 33 3 -0.6152820948879807 -9.326655852061121 12.194722119939774 0 0 0 
	 331 34 1 -11.19194853999727 4.612945982053641 7.781327173927444 0 0 0 
	 332 34 2 -11.191986170134486 5.364295382987424 7.183770418212627 0 0 0 
	 333 34 2 -11.192023800271702 6.1156447839212085 6.58621366249781 0 0 0 
	 335 34 2 -10.767361276086515 4.682216236668052 8.639538853614008 0 0 0 
	 336 34 2 -10.34277401217576 4.751486491282462 9.497750533300572 0 0 0 
	 338 34 2 -11.61649817377081 3.7923263265054468 7.520672249955697 0 0 0 
	 339 34 2 -12.041047807544349 2.971706670957253 7.26001732598395 0 0 0 
	 334 34 4 -11.192045751185077 6.553931934465915 6.237638888330834 0 0 0 
	 337 34 4 -10.09509810822782 4.7918941398075345 9.998374013117735 0 0 0 
	 340 34 4 -12.288701760578913 2.4930118718874734 7.107968620333764 0 0 0 
	 341 35 1 -9.682892115955223 -4.422901457566367 -4.967805290180845 0 0 0 
	 342 35 2 -10.122366033131195 -5.010853566590264 -5.586493413241534 0 0 0 
	 343 35 2 -10.561839950307167 -5.598805675614161 -6.205181536302223 0 0 0 
	 345 35 2 -9.6714608270094 -4.633268235806647 -4.031207647515735 0 0 0 
	 346 35 2 -9.660029538063574 -4.843635014046927 -3.094610004850624 0 0 0 
	 348 35 2 -9.254849487725075 -3.624582570302191 -5.285714809785266 0 0 0 
	 349 35 2 -8.826806859494926 -2.8262636830380146 -5.603624329389687 0 0 0 
	 344 35 3 -10.818199735326486 -5.9417777392114335 -6.566082941420958 0 0 0 
	 347 35 3 -9.65336128617851 -4.966348968020424 -2.5482613799626437 0 0 0 
	 350 35 3 -8.577115326360673 -2.360577665467245 -5.789071549158933 0 0 0 
	 351 36 1 3.1412293194226346 -1.850585515925414 10.169064127863319 0 0 0 
	 352 36 2 3.6192665823463583 -1.4037276335190052 10.871487367931339 0 0 0 
	 353 36 2 4.0973038452700825 -0.9568697511125985 11.573910607999359 0 0 0 
	 355 36 2 3.6157788013572985 -2.3942596824417293 9.535959721103792 0 0 0 
	 356 36 2 4.090328283291962 -2.9379338489580435 8.902855314344267 0 0 0 
	 358 36 2 2.188642574564247 -1.7537692318155047 10.099745294554825 0 0 0 
	 359 36 2 1.2360558297058604 -1.656952947705597 10.03042646124633 0 0 0 
	 354 36 4 4.376158915308921 -0.6962026530421932 11.983657498039037 0 0 0 
	 357 36 4 4.367148814420516 -3.2550771127592286 8.53354441040121 0 0 0 
	 360 36 4 0.6803802285384675 -1.600476781974819 9.989990475149709 0 0 0 
	 361 37 1 -3.5218080675481174 2.608158443648432 9.427980505094931 0 0 0 
	 362 37 2 -3.6835644097805345 1.9313512787331253 10.08931774680062 0 0 0 
	 363 37 2 -3.8453207520129515 1.254544113817818 10.750654988506314 0 0 0 
	 365 37 2 -4.26002909804253 3.064820494012256 9.017993332255006 0 0 0 
	 366 37 2 -4.998250128536944 3.5214825443760804 8.60800615941508 0 0 0 
	 368 37 2 -2.621830694821286 2.828303558199914 9.176630436229164 0 0 0 
	 369 37 2 -1.7218533220944563 3.048448672751397 8.925280367363394 0 0 0 
	 364 37 3 -3.9396786183151957 0.8597399342838896 11.136435046167968 0 0 0 
	 367 37 3 -5.428879062992017 3.7878687404216453 8.368846975258458 0 0 0 
	 370 37 3 -1.1968665213371381 3.17686665623976 8.778659493858363 0 0 0 
	 371 38 1 -2.4272778426285804 4.438038636245747 -10.707982876232412 0 0 0 
	 372 38 2 -2.421982844086668 5.3865402863807805 -10.856025379188692 0 0 0 
	 373 38 2 -2.4166878455447556 6.335041936515814 -11.004067882144971 0 0 0 
	 375 38 2 -1.641358036070963 3.9188813514508123 -10.893470803884828 0 0 0 
	 376 38 2 -0.8554382295133454 3.3997240666558772 -11.078958731537243 0 0 0 
	 378 38 2 -3.2184926477281097 4.008694270905649 -10.374452445623717 0 0 0 
	 379 38 2 -4.009707452827639 3.5793499055655507 -10.040922015015022 0 0 0 
	 374 38 4 -2.4135990963953065 6.88833456576125 -11.090426008869468 0 0 0 
	 377 38 4 -0.3969850090214022 3.0968823171921653 -11.18716002266782 0 0 0 
	 380 38 4 -4.471249422469032 3.328899025783827 -9.84636259715995 0 0 0 
	 381 39 1 0.017450807898467757 2.617927478637558 3.34894724566026 0 0 0 
	 382 39 2 0.9607156538030603 2.7952263482739137 3.369356589262054 0 0 0 
	 383 39 2 1.9039804997076542 2.9725252179102686 3.38976593286385 0 0 0 
	 385 39 2 -0.40325058173907635 2.351623295454857 2.528159561312819 0 0 0 
	 386 39 2 -0.8239519713766194 2.085319112272155 1.7073718769653774 0 0 0 
	 388 39 2 -0.505112648368581 2.7069327921839044 4.149325586405904 0 0 0 
	 389 39 2 -1.0276761046356293 2.7959381057302517 4.9497039271515515 0 0 0 
	 384 39 3 2.4542183264853312 3.0759495585314762 3.4016713832982304 0 0 0 
	 387 39 3 -1.0693611153318545 1.929975005415581 1.2285790610960392 0 0 0 
	 390 39 3 -1.3325047874580735 2.8478578719656187 5.416591292586511 0 0 0 
	 391 40 1 -2.2238489962698207 -7.634033559116544 3.9239386882299225 0 0 0 
	 392 40 2 -2.5310478154498535 -6.726325944286894 3.866529878151114 0 0 0 
	 393 40 2 -2.8382466346298862 -5.818618329457246 3.8091210680723053 0 0 0 
	 395 40 2 -1.7207228257286662 -7.9230398507761235 4.688752011791804 0 0 0 
	 396 40 2 -1.2175966551875126 -8.212046142435705 5.4535653353536855 0 0 0 
	 398 40 2 -2.419776347630942 -8.252734882286612 3.216534174746849 0 0 0 
	 399 40 2 -2.6157036989920623 -8.871436205456677 2.509129661263776 0 0 0 
	 394 40 4 -3.017445945818239 -5.289122220806618 3.775632595526335 0 0 0 
	 397 40 4 -0.9241063890385053 -8.380633145903792 5.899706440764783 0 0 0 