LAMMPS FENE chain data file 

20  atoms          
18  bonds          
18  angles         
0  dihedrals      
0  impropers    

4  atom types     
2  bond types     
2  angle types    
0  dihedral types 
0  improper types 

-5.000000 5.000000 xlo xhi  
-5.000000 5.000000 ylo yhi  
-5.000000 5.000000 zlo zhi  

Masses

	 1 1.0 
	 2 1.0 
	 3 1.0 
	 4 1.0 

Atoms 

	 1 1 1 2.4305663241262 2.276277861959718 -1.9214686587264218 0 0 0 
	 2 1 2 1.898839785778704 2.8806375888796 -2.4445520257859323 0 0 0 
	 3 1 2 1.3671132474312082 3.4849973157994816 -2.967635392845443 0 0 0 
	 5 1 2 3.3367026987603725 2.089389961560901 -2.1775736825923344 0 0 0 
	 6 1 2 4.242839073394546 1.902502061162084 -2.4336787064582475 0 0 0 
	 8 1 2 2.0561564878395235 1.8588060354386535 -1.1422802678009987 0 0 0 
	 9 1 2 1.6817466515528472 1.441334208917589 -0.36309187687557576 0 0 0 
	 4 1 3 1.0569394333951685 3.8375404898360794 -3.2727673569634907 0 0 0 
	 7 1 3 4.771418625264479 1.7934841192627737 -2.583073303713363 0 0 0 
	 10 1 3 1.4633409137189528 1.1978089767803013 0.09143468449758752 0 0 0 
	 11 2 1 -2.9455432431257513 1.6663920875123672 -2.834253004384392 0 0 0 
	 12 2 2 -3.416819115013514 1.4192150650138207 -3.633253988191785 0 0 0 
	 13 2 2 -3.888094986901277 1.1720380425152739 -4.432254971999178 0 0 0 
	 15 2 2 -3.404737952587942 2.129969264681038 -2.1300964737676114 0 0 0 
	 16 2 2 -3.863932662050133 2.5935464418497087 -1.4259399431508306 0 0 0 
	 18 2 2 -2.015072661775798 1.4499919328422433 -2.739408551193779 0 0 0 
	 19 2 2 -1.0846020804258447 1.2335917781721193 -2.6445640980031664 0 0 0 
	 14 2 4 -4.1630059121691385 1.0278514460577883 -4.898338879220157 0 0 0 
	 17 2 4 -4.131796242569744 2.863966461864767 -1.015181966957709 0 0 0 
	 20 2 4 -0.5418275746383721 1.1073583546145471 -2.589238166975309 0 0 0 


Bonds 

	 1 1 1 2 
	 2 1 2 3 
	 3 1 1 5 
	 4 1 5 6 
	 5 1 1 8 
	 6 1 8 9 
	 7 2 3 4 
	 8 2 6 7 
	 9 2 9 10 
	 10 1 11 12 
	 11 1 12 13 
	 12 1 11 15 
	 13 1 15 16 
	 14 1 11 18 
	 15 1 18 19 
	 16 2 13 14 
	 17 2 16 17 
	 18 2 19 20 


Angles 

	 1 1 2 1 5 
	 2 1 5 1 8 
	 3 1 8 1 2 
	 4 2 1 2 3 
	 5 2 2 3 4 
	 6 2 1 5 6 
	 7 2 5 6 7 
	 8 2 1 8 9 
	 9 2 8 9 10 
	 10 1 12 11 15 
	 11 1 15 11 18 
	 12 1 18 11 12 
	 13 2 11 12 13 
	 14 2 12 13 14 
	 15 2 11 15 16 
	 16 2 15 16 17 
	 17 2 11 18 19 
	 18 2 18 19 20 
