LAMMPS FENE chain data file 

1000  atoms          
900  bonds          
900  angles         
0  dihedrals      
0  impropers    

4  atom types     
2  bond types     
2  angle types    
0  dihedral types 
0  improper types 

-10.000000 10.000000 xlo xhi  
-10.000000 10.000000 ylo yhi  
-10.000000 10.000000 zlo zhi  

Masses

	 1 1.0 
	 2 1.0 
	 3 1.0 
	 4 1.0 

Atoms 

	 1 1 1 0.9381477245905723 6.695059911019179 -7.324683084908427 0 0 0 
	 2 1 2 0.20050814592546384 6.152692274453062 -7.613344129721278 0 0 0 
	 3 1 2 -0.5371314327396446 5.610324637886945 -7.902005174534128 0 0 0 
	 5 1 2 1.0081273053033026 7.606143048298945 -7.619013469421698 0 0 0 
	 6 1 2 1.0781068860160332 8.51722618557871 -7.913343853934969 0 0 0 
	 8 1 2 1.6058077225429503 6.32634441030553 -6.741691655582306 0 0 0 
	 9 1 2 2.2734677204953284 5.957628909591881 -6.158700226256185 0 0 0 
	 4 1 3 -0.9674211869609581 5.293943516556712 -8.070390784008291 0 0 0 
	 7 1 3 1.1189283080984591 9.048691348991907 -8.085036578234376 0 0 0 
	 10 1 3 2.6629360526342154 5.742544867508919 -5.818621892482614 0 0 0 
	 11 2 1 5.99399402890231 -7.607259431314781 2.184110689934289 0 0 0 
	 12 2 2 6.7353411281412185 -7.118132688672448 1.8197489080715967 0 0 0 
	 13 2 2 7.476688227380127 -6.629005946030115 1.4553871262089044 0 0 0 
	 15 2 2 5.095193593047676 -7.3457160380142215 1.9711486512317338 0 0 0 
	 16 2 2 4.196393157193041 -7.084172644713661 1.7581866125291787 0 0 0 
	 18 2 2 6.151447365518035 -8.357929567257674 2.761434510499536 0 0 0 
	 19 2 2 6.3089007021337595 -9.108599703200568 3.338758331064783 0 0 0 
	 14 2 4 7.909140701936158 -6.343682012822087 1.2428427534556672 0 0 0 
	 17 2 4 3.672092902944505 -6.931605665288335 1.6339587566193552 0 0 0 
	 20 2 4 6.400748481826265 -9.546490615833921 3.675530559727844 0 0 0 
	 21 3 1 -6.387731925909492 6.764455747586606 -2.9978143203950736 0 0 0 
	 22 3 2 -6.615929245508349 6.764466753493804 -3.930298091410294 0 0 0 
	 23 3 2 -6.8441265651072065 6.764477759401002 -4.862781862425515 0 0 0 
	 25 3 2 -7.073374207972516 6.879821412413197 -2.3358585632431876 0 0 0 
	 26 3 2 -7.75901649003554 6.9951870772397875 -1.6739028060913015 0 0 0 
	 28 3 2 -5.473892324247611 6.649079076852817 -2.7272863065317385 0 0 0 
	 29 3 2 -4.56005272258573 6.533702406119029 -2.4567582926684035 0 0 0 
	 24 3 3 -6.97724166820654 6.764484179513533 -5.406730728851061 0 0 0 
	 27 3 3 -8.158974487905638 7.062483715055299 -1.2877619477527011 0 0 0 
	 30 3 3 -4.026979621616299 6.466399348190985 -2.2989502845814584 0 0 0 
	 31 4 1 -2.586848719134469 3.0270944552105683 -3.9271303477947694 0 0 0 
	 32 4 2 -2.3255635308566176 3.472400629774448 -4.736471105005162 0 0 0 
	 33 4 2 -2.064278342578766 3.917706804338328 -5.545811862215554 0 0 0 
	 35 4 2 -3.5080633902796325 3.023725871815275 -3.6570337311687604 0 0 0 
	 36 4 2 -4.429278061424796 3.0203572884199814 -3.3869371145427514 0 0 0 
	 38 4 2 -1.9269192362671577 2.585156864041982 -3.387886207210386 0 0 0 
	 39 4 2 -1.2669897533998462 2.1432192728733956 -2.848642066626003 0 0 0 
	 34 4 4 -1.9118619827500192 4.177468739500592 -6.017927303921616 0 0 0 
	 37 4 4 -4.966653286259474 3.0183922814393935 -3.2293807548442466 0 0 0 
	 40 4 4 -0.8820308883939147 1.8854223446917202 -2.534082984618446 0 0 0 
	 41 5 1 5.296110180843174 -6.905697574576443 -6.709772547255694 0 0 0 
	 42 5 2 4.736488260506531 -6.981848403865508 -5.933483710882714 0 0 0 
	 43 5 2 4.176866340169887 -7.057999233154574 -5.1571948745097345 0 0 0 
	 45 5 2 5.953497032329447 -6.207975115219215 -6.761016056127204 0 0 0 
	 46 5 2 6.6108838838157205 -5.5102526558619855 -6.812259564998714 0 0 0 
	 48 5 2 5.198345249693544 -7.527269204644607 -7.434817874757164 0 0 0 
	 49 5 2 5.100580318543915 -8.14884083471277 -8.159863202258634 0 0 0 
	 44 5 3 3.850420219973511 -7.102420550239861 -4.704359719958829 0 0 0 
	 47 5 3 6.994359547182714 -5.103247887903602 -6.8421516118404275 0 0 0 
	 50 5 3 5.043550775373297 -8.511424285585866 -8.582806309967825 0 0 0 
	 51 6 1 -3.807094602020775 -3.84495646962951 -4.735666259329014 0 0 0 
	 52 6 2 -4.442595206259818 -4.560840263988715 -4.808118829923012 0 0 0 
	 53 6 2 -5.078095810498861 -5.27672405834792 -4.88057140051701 0 0 0 
	 55 6 2 -3.2527285548562253 -3.7723766846015843 -3.955275036571831 0 0 0 
	 56 6 2 -2.698362507691675 -3.6997968995736588 -3.1748838138146476 0 0 0 
	 58 6 2 -3.725960044946282 -3.201652460298231 -5.4436049114922 0 0 0 
	 59 6 2 -3.6448254878717887 -2.558348450966952 -6.151543563655384 0 0 0 
	 54 6 4 -5.4488044963049695 -5.6943229383907905 -4.922835400030176 0 0 0 
	 57 6 4 -2.374982313512355 -3.6574586916407017 -2.719655600539624 0 0 0 
	 60 6 4 -3.597496996245001 -2.183087778857039 -6.564507777417242 0 0 0 
	 61 7 1 -6.053450592548229 -8.412250238584722 -7.356546203659677 0 0 0 
	 62 7 2 -5.504116466666154 -8.801813082075864 -8.040704671496242 0 0 0 
	 63 7 2 -4.954782340784081 -9.191375925567005 -8.724863139332804 0 0 0 
	 65 7 2 -6.354673144237854 -7.504712511651194 -7.441635853711348 0 0 0 
	 66 7 2 -6.655895695927478 -6.597174784717665 -7.526725503763019 0 0 0 
	 68 7 2 -6.301562166740679 -8.930225122027108 -6.587298085771444 0 0 0 
	 69 7 2 -6.5496737409331285 -9.448200005469495 -5.81804996788321 0 0 0 
	 64 7 3 -4.634337434019537 -9.418620917603503 -9.123955578904134 0 0 0 
	 67 7 3 -6.831608851079759 -6.067777777339774 -7.576361132959826 0 0 0 
	 70 7 3 -6.69440549254539 -9.750352020810888 -5.369321899115073 0 0 0 
	 71 8 1 -4.089552636381657 -6.852311778511064 4.20391591850124 0 0 0 
	 72 8 2 -4.584622392201984 -6.531278037691691 4.961176292565221 0 0 0 
	 73 8 2 -5.079692148022312 -6.210244296872318 5.718436666629202 0 0 0 
	 75 8 2 -4.409318756341065 -7.608992977095953 3.707143141233563 0 0 0 
	 76 8 2 -4.729084876300474 -8.365674175680843 3.2103703639658865 0 0 0 
	 78 8 2 -3.2747167606019216 -6.416664320745548 3.943428321704935 0 0 0 
	 79 8 2 -2.459880884822186 -5.981016862980033 3.6829407249086303 0 0 0 
	 74 8 4 -5.368482838917503 -6.0229746147276835 6.160171884833192 0 0 0 
	 77 8 4 -4.9156151129434615 -8.807071541522028 2.9205862438930748 0 0 0 
	 80 8 4 -1.9845599572840067 -5.726889179283481 3.530989626777453 0 0 0 
	 81 9 1 1.6077099509106296 -2.6144861114327567 -6.351823240872396 0 0 0 
	 82 9 2 2.451482728491745 -3.039381586353169 -6.522443682804793 0 0 0 
	 83 9 2 3.295255506072861 -3.464277061273581 -6.693064124737189 0 0 0 
	 85 9 2 1.330596026798717 -1.8660464740359046 -6.885345482429921 0 0 0 
	 86 9 2 1.0534821026868042 -1.1176068366390528 -7.418867723987446 0 0 0 
	 88 9 2 1.0410510974414267 -2.938030273909196 -5.6476805573824755 0 0 0 
	 89 9 2 0.4743922439722237 -3.2615744363856356 -4.943537873892554 0 0 0 
	 84 9 3 3.7874562929951785 -3.7121327549771546 -6.792592715864421 0 0 0 
	 87 9 3 0.8918323136215218 -0.6810170481575559 -7.7300890315626685 0 0 0 
	 90 9 3 0.14384124611518878 -3.450308531163559 -4.5327879751901 0 0 0 
	 91 10 1 0.9434498505604094 3.151330181010006 -3.583562113506793 0 0 0 
	 92 10 2 0.7183716086305453 3.7135600087192557 -2.838688026265339 0 0 0 
	 93 10 2 0.4932933667006812 4.275789836428506 -2.0938139390238852 0 0 0 
	 95 10 2 0.26026550230925305 2.638401155086255 -4.021469593083878 0 0 0 
	 96 10 2 -0.4229188459419033 2.125472129162504 -4.459377072660962 0 0 0 
	 98 10 2 1.8517124407414296 3.102029379224507 -3.8905287211711626 0 0 0 
	 99 10 2 2.75997503092245 3.052728577439008 -4.197495328835532 0 0 0 
	 94 10 4 0.36199772557492715 4.603757235925568 -1.659304054799704 0 0 0 
	 97 10 4 -0.8214430490884115 1.8262635307069823 -4.714823102414261 0 0 0 
	 100 10 4 3.289794875194712 3.023969776397467 -4.376559183306414 0 0 0 
	 101 11 1 3.5369349559282304 3.8438839557077054 3.0481827726066646 0 0 0 
	 102 11 2 3.0612790421898803 4.574086597214221 3.4508682007793787 0 0 0 
	 103 11 2 2.5856231284515303 5.304289238720736 3.853553628952093 0 0 0 
	 105 11 2 3.9393679890602953 3.170089072971362 3.6010372831629627 0 0 0 
	 106 11 2 4.34180102219236 2.496294190235019 4.153891793719261 0 0 0 
	 108 11 2 3.6101578365345155 3.7874761969375323 2.092642833877653 0 0 0 
	 109 11 2 3.6833807171408006 3.73106843816736 1.1371028951486413 0 0 0 
	 104 11 3 2.308157178770826 5.730240779599538 4.0884534620528425 0 0 0 
	 107 11 3 4.576553624852732 2.1032471753054853 4.476390258210435 0 0 0 
	 110 11 3 3.7260940641611335 3.6981639122180923 0.5797045975567174 0 0 0 
	 111 12 1 -1.1954786555800756 3.6138406829708924 3.573538836957295 0 0 0 
	 112 12 2 -1.5792433396257062 2.89455454904958 3.0666343836054937 0 0 0 
	 113 12 2 -1.963008023671337 2.1752684151282673 2.5597299302536918 0 0 0 
	 115 12 2 -1.763772313801952 4.278179262690028 3.9701451524914275 0 0 0 
	 116 12 2 -2.3320659720238286 4.942517842409162 4.36675146802556 0 0 0 
	 118 12 2 -0.24342031331256886 3.6687882371730707 3.683836974774964 0 0 0 
	 119 12 2 0.7086380289549379 3.7237357913752485 3.7941351125926333 0 0 0 
	 114 12 4 -2.186870756031288 1.7556848370075016 2.264035665798474 0 0 0 
	 117 12 4 -2.66357060598659 5.330048680578657 4.598105152087138 0 0 0 
	 120 12 4 1.2640053952776502 3.755788531326519 3.8584756929862736 0 0 0 
	 121 13 1 -3.2608552349493025 7.471502023700378 -5.833002551020529 0 0 0 
	 122 13 2 -2.9919791728115923 7.438594933835173 -4.912012438887982 0 0 0 
	 123 13 2 -2.7231031106738826 7.405687843969968 -3.991022326755435 0 0 0 
	 125 13 2 -4.163544484149883 7.705086875913666 -6.0614543756886405 0 0 0 
	 126 13 2 -5.0662337333504635 7.938671728126954 -6.289906200356751 0 0 0 
	 128 13 2 -2.627042047886433 7.270824261352295 -6.525540838484965 0 0 0 
	 129 13 2 -1.9932288608235629 7.0701464990042115 -7.2180791259494015 0 0 0 
	 124 13 3 -2.5662587410935513 7.386492041548599 -3.4537780946781154 0 0 0 
	 127 13 3 -5.592802462050802 8.074929558584705 -6.423169764746483 0 0 0 
	 130 13 3 -1.6235045017035554 6.95308447096783 -7.622059793636989 0 0 0 
	 131 14 1 2.045018429481753 -1.95022079627444 -3.058039777009993 0 0 0 
	 132 14 2 2.483495134612332 -2.04091353316989 -3.9072235065598733 0 0 0 
	 133 14 2 2.9219718397429113 -2.1316062700653404 -4.756407236109753 0 0 0 
	 135 14 2 1.2499555732069563 -2.455067086939198 -2.872014839503765 0 0 0 
	 136 14 2 0.4548927169321595 -2.9599133776039563 -2.685989901997536 0 0 0 
	 138 14 2 2.4016045806259703 -1.354681768714232 -2.394880984966342 0 0 0 
	 139 14 2 2.758190731770188 -0.7591427411540241 -1.7317221929226905 0 0 0 
	 134 14 4 3.177749917735749 -2.184510366587686 -5.251764411680517 0 0 0 
	 137 14 4 -0.008893949228138798 -3.2544070471583986 -2.577475355118903 0 0 0 
	 140 14 4 2.966199319937648 -0.41174497507723595 -1.3448795642305604 0 0 0 
	 141 15 1 3.8987920079981953 -7.548897045739347 -1.365190841286501 0 0 0 
	 142 15 2 3.088900355841349 -7.1190514813921535 -1.0807469934400473 0 0 0 
	 143 15 2 2.2790087036845024 -6.68920591704496 -0.7963031455935937 0 0 0 
	 145 15 2 4.604070915522476 -7.0308540248643645 -1.7599225110624128 0 0 0 
	 146 15 2 5.309349823046756 -6.512811003989381 -2.1546541808383246 0 0 0 
	 148 15 2 4.003404752630762 -8.496785630961522 -1.254903019357043 0 0 0 
	 149 15 2 4.108017497263328 -9.444674216183698 -1.1446151974275849 0 0 0 
	 144 15 3 1.8065719065930086 -6.438462671175765 -0.6303775676831624 0 0 0 
	 147 15 3 5.720762519102586 -6.210619241812308 -2.38491432154094 0 0 0 
	 150 15 3 4.169041598298992 -9.997609224229967 -1.0802806346354006 0 0 0 
	 151 16 1 0.953652248429743 -1.0732196903677336 2.4016547746277164 0 0 0 
	 152 16 2 0.724421977053592 -1.9755679013566168 2.1675155237320634 0 0 0 
	 153 16 2 0.49519170567744175 -2.877916112345501 1.9333762728364112 0 0 0 
	 155 16 2 1.3803596998519354 -0.8889051613873795 3.2416243605696877 0 0 0 
	 156 16 2 1.8070671512741279 -0.7045906324070268 4.081593946511661 0 0 0 
	 158 16 2 0.7561750683837017 -0.3551860083592031 1.7958244395813965 0 0 0 
	 159 16 2 0.5586978883376601 0.3628476736493278 1.1899941045350773 0 0 0 
	 154 16 4 0.3614740473746872 -3.4042859020890153 1.7967950431472803 0 0 0 
	 157 16 4 2.0559798312704065 -0.5970738238351547 4.57157620497781 0 0 0 
	 160 16 4 0.4435028666441358 0.7817006548209704 0.8365930757580574 0 0 0 
	 161 17 1 -6.405815163729571 3.686110157788307 -0.24910550792344832 0 0 0 
	 162 17 2 -5.76198079628767 3.66253618048237 -0.9608087992567582 0 0 0 
	 163 17 2 -5.118146428845769 3.638962203176433 -1.6725120905900681 0 0 0 
	 165 17 2 -7.1177083040141795 4.329918209500388 -0.26697585672847235 0 0 0 
	 166 17 2 -7.829601444298788 4.973726261212469 -0.28484620553349643 0 0 0 
	 168 17 2 -6.337756390886863 3.0658760833821637 0.4804681322148855 0 0 0 
	 169 17 2 -6.269697618044156 2.4456420089760207 1.2100417723532193 0 0 0 
	 164 17 3 -4.742576381171327 3.625210716414636 -2.0876723438678324 0 0 0 
	 167 17 3 -8.244872442798144 5.349280958044515 -0.2952705756697604 0 0 0 
	 170 17 3 -6.229996667219243 2.08383879890577 1.6356263957672477 0 0 0 
	 171 18 1 -6.88197191105721 -3.4650261483164058 4.1896273711605625 0 0 0 
	 172 18 2 -6.187984524468561 -3.0304398557064114 3.688512352894937 0 0 0 
	 173 18 2 -5.493997137879913 -2.5958535630964175 3.1873973346293116 0 0 0 
	 175 18 2 -7.236079997333467 -3.049400431055753 4.979223930414296 0 0 0 
	 176 18 2 -7.590188083609722 -2.6337747137951 5.76882048966803 0 0 0 
	 178 18 2 -7.221851211369603 -4.315238158187053 3.901145830172454 0 0 0 
	 179 18 2 -7.561730511681995 -5.165450168057699 3.6126642891843455 0 0 0 
	 174 18 4 -5.089171162369868 -2.3423448924072545 2.8950802406410303 0 0 0 
	 177 18 4 -7.796751133937539 -2.391326378726386 6.229418482566042 0 0 0 
	 180 18 4 -7.7599934368642245 -5.661407173815576 3.4443833902746155 0 0 0 
	 181 19 1 -1.6128448509322268 -4.610365152799327 7.3257323250576984 0 0 0 
	 182 19 2 -2.193846828314582 -4.591768780274438 8.089728972436932 0 0 0 
	 183 19 2 -2.7748488056969376 -4.57317240774955 8.853725619816165 0 0 0 
	 185 19 2 -1.3247525562266367 -3.788575195858902 6.921672804190881 0 0 0 
	 186 19 2 -1.0366602615210465 -2.966785238918477 6.517613283324064 0 0 0 
	 188 19 2 -1.3199351682554616 -5.450751482264639 6.965795198545282 0 0 0 
	 189 19 2 -1.0270254855786967 -6.291137811729953 6.605858072032866 0 0 0 
	 184 19 3 -3.1137666258366448 -4.562324523776699 9.299390330787384 0 0 0 
	 187 19 3 -0.8686064229427852 -2.4874077640365626 6.281911896151755 0 0 0 
	 190 19 3 -0.8561615040172501 -6.781363170584719 6.395894748233957 0 0 0 
	 191 20 1 -6.639567306220496 -7.531517992622717 4.219284278503127 0 0 0 
	 192 20 2 -6.228627041272619 -8.154657980491788 4.822960229790823 0 0 0 
	 193 20 2 -5.817686776324739 -8.777797968360858 5.426636181078517 0 0 0 
	 195 20 2 -6.106969581158301 -6.860521581650407 3.7860366821787563 0 0 0 
	 196 20 2 -5.574371856096101 -6.189525170678096 3.3527890858543827 0 0 0 
	 198 20 2 -7.583105296230577 -7.579374415725961 4.048855923539808 0 0 0 
	 199 20 2 -8.526643286240656 -7.627230838829208 3.8784275685764875 0 0 0 
	 194 20 4 -5.577971621771807 -9.141296294617815 5.778780485996334 0 0 0 
	 197 20 4 -5.263689849809819 -5.798110597610915 3.1000613213318333 0 0 0 
	 200 20 4 -9.077040447079868 -7.655147085639431 3.7790110281812175 0 0 0 
	 201 21 1 -1.26074719768301 -7.828905293812949 -1.5645676155691972 0 0 0 
	 202 21 2 -2.030624473135822 -7.3043811327092225 -1.796436943337631 0 0 0 
	 203 21 2 -2.8005017485886343 -6.779856971605494 -2.0283062711060644 0 0 0 
	 205 21 2 -1.083512060256238 -8.040857641710279 -0.6451852640515479 0 0 0 
	 206 21 2 -0.9062769228294661 -8.25280998960761 0.2741970874661015 0 0 0 
	 208 21 2 -0.6681050596569689 -8.141477107019345 -2.2520806393184114 0 0 0 
	 209 21 2 -0.07546292163092794 -8.454048920225743 -2.939593663067626 0 0 0 
	 204 21 3 -3.249596825936109 -6.473884544294987 -2.163563378970985 0 0 0 
	 207 21 3 -0.8028897593305169 -8.376448859214385 0.81050345918473 0 0 0 
	 210 21 3 0.27024499221759557 -8.636382477929473 -3.340642926921335 0 0 0 
	 211 22 1 -4.861232018892254 2.901728934726031 -8.790493159518286 0 0 0 
	 212 22 2 -5.333667781750728 3.629046036888406 -8.378893496162668 0 0 0 
	 213 22 2 -5.8061035446092015 4.35636313905078 -7.967293832807051 0 0 0 
	 215 22 2 -3.90148968536139 2.8839872456713618 -8.77708101210561 0 0 0 
	 216 22 2 -2.941747351830526 2.866245556616693 -8.763668864692933 0 0 0 
	 218 22 2 -5.348538589564644 2.1921535216183257 -9.215504970286581 0 0 0 
	 219 22 2 -5.835845160237034 1.4825781085106202 -9.640516781054874 0 0 0 
	 214 22 4 -6.081691072943311 4.780631448645499 -7.7271940291829395 0 0 0 
	 217 22 4 -2.381897657270856 2.8558962380014687 -8.755845112035539 0 0 0 
	 220 22 4 -6.120107326462595 1.068659117531126 -9.88844033733638 0 0 0 
	 221 23 1 6.2512418841281985 -1.9233289392507213 -4.337426672591745 0 0 0 
	 222 23 2 7.069449962501576 -2.262129112834372 -4.708034258677395 0 0 0 
	 223 23 2 7.887658040874954 -2.6009292864180225 -5.078641844763045 0 0 0 
	 225 23 2 6.226873741596538 -1.0449328376587155 -3.950869455174293 0 0 0 
	 226 23 2 6.202505599064877 -0.1665367360667096 -3.564312237756841 0 0 0 
	 228 23 2 5.457401948286481 -2.4629248672590762 -4.353376303923547 0 0 0 
	 229 23 2 4.663562012444764 -3.002520795267431 -4.369325935255348 0 0 0 
	 224 23 3 8.364946086592758 -2.7985627210084854 -5.294829603313008 0 0 0 
	 227 23 3 6.188290849254742 0.34586098986196046 -3.3388205275966607 0 0 0 
	 230 23 3 4.200488716537095 -3.3172850866056383 -4.378629886865566 0 0 0 
	 231 24 1 -2.8328206024281655 1.2915448187511536 8.59393187824816 0 0 0 
	 232 24 2 -1.9222270398417727 0.9877414660044983 8.582846453758657 0 0 0 
	 233 24 2 -1.0116334772553799 0.6839381132578431 8.571761029269155 0 0 0 
	 235 24 2 -3.075436595174435 2.0622005913787995 9.112417326625863 0 0 0 
	 236 24 2 -3.3180525879207043 2.832856364006445 9.630902775003566 0 0 0 
	 238 24 2 -3.5007981722682886 0.8246923988701632 8.08653185435996 0 0 0 
	 239 24 2 -4.168775742108412 0.35783997898917286 7.579131830471759 0 0 0 
	 234 24 4 -0.48045389907998404 0.5067194908222943 8.565294531650277 0 0 0 
	 237 24 4 -3.4595785836893613 3.2824055647059054 9.93335261989056 0 0 0 
	 240 24 4 -4.55842932451515 0.08550940072526192 7.283148483203642 0 0 0 
	 241 25 1 -3.4939596378498026 -2.3225478101550934 0.16913046986461844 0 0 0 
	 242 25 2 -3.1055987722284133 -2.3587003779881273 1.0463241941313177 0 0 0 
	 243 25 2 -2.7172379066070214 -2.3948529458211603 1.9235179183980171 0 0 0 
	 245 25 2 -4.445170361893746 -2.395415494006173 0.06194624008253147 0 0 0 
	 246 25 2 -5.396381085937689 -2.4682831778572507 -0.04523798969955606 0 0 0 
	 248 25 2 -2.9311097794272536 -2.2135275584709815 -0.6008790246199929 0 0 0 
	 249 25 2 -2.368259921004702 -2.1045073067868705 -1.370888519104605 0 0 0 
	 244 25 3 -2.490694068327878 -2.4159419437237633 2.4352142575535907 0 0 0 
	 247 25 3 -5.95125400829665 -2.510789326770381 -0.10776212373910787 0 0 0 
	 250 25 3 -2.039930836924881 -2.0409121599711364 -1.8200607242206277 0 0 0 
	 251 26 1 4.970965271694256 2.2904916749126936 6.6729339284996065 0 0 0 
	 252 26 2 5.660272816886617 2.417882445973175 6.017017242029826 0 0 0 
	 253 26 2 6.349580362078978 2.5452732170336563 5.361100555560044 0 0 0 
	 255 26 2 4.06445088691226 2.142110002584518 6.393981334856145 0 0 0 
	 256 26 2 3.1579365021302648 1.9937283302563427 6.115028741212683 0 0 0 
	 258 26 2 5.18817211128389 2.3114825761803877 7.607803208612849 0 0 0 
	 259 26 2 5.405378950873525 2.3324734774480818 8.542672488726092 0 0 0 
	 254 26 4 6.751676430107855 2.6195845001522704 4.978482488452672 0 0 0 
	 257 26 4 2.6291364443407677 1.9071723547315738 5.952306394920664 0 0 0 
	 260 26 4 5.532082940634145 2.3447181698542363 9.088012902125485 0 0 0 
	 261 27 1 -1.0735365150755138 -0.4224416811128635 -2.727227949923696 0 0 0 
	 262 27 2 -1.3311952380765528 -0.6737344460982876 -3.6172076849331245 0 0 0 
	 263 27 2 -1.5888539610775902 -0.9250272110837133 -4.507187419942554 0 0 0 
	 265 27 2 -1.5691909908261668 0.2514235352229546 -2.256237174131828 0 0 0 
	 266 27 2 -2.0648454665768172 0.9252887515587719 -1.785246398339959 0 0 0 
	 268 27 2 -0.3202233163238241 -0.8450141324632578 -2.308238990706137 0 0 0 
	 269 27 2 0.4330898824278667 -1.2675865838136515 -1.8892500314885754 0 0 0 
	 264 27 3 -1.7391548828281942 -1.071614657325211 -5.02634226536472 0 0 0 
	 267 27 3 -2.353977244098032 1.3183767944213334 -1.5105017791280364 0 0 0 
	 270 27 3 0.8725225816996867 -1.5140871804347142 -1.6448398052783322 0 0 0 
	 271 28 1 7.160861381643926 8.809340349396644 7.646117211240142 0 0 0 
	 272 28 2 6.352648520407306 9.105207963582178 7.220847501752298 0 0 0 
	 273 28 2 5.544435659170685 9.401075577767712 6.795577792264454 0 0 0 
	 275 28 2 7.991155809156254 8.827847305371156 7.164589791229057 0 0 0 
	 276 28 2 8.821450236668582 8.846354261345667 6.6830623712179715 0 0 0 
	 278 28 2 7.138779815368219 8.494965779236598 8.552914340739072 0 0 0 
	 279 28 2 7.116698249092511 8.180591209076553 9.459711470238 0 0 0 
	 274 28 4 5.072978156782657 9.573665019375941 6.547503795063212 0 0 0 
	 277 28 4 9.30578865271744 8.857149985664131 6.402171376211505 0 0 0 
	 280 28 4 7.103817335431681 7.997206043149859 9.988676462445708 0 0 0 
	 281 29 1 6.749813965890203 -2.497214076157207 -1.062576234593058 0 0 0 
	 282 29 2 6.817456273135178 -2.624100388165945 -0.113405869434412 0 0 0 
	 283 29 2 6.885098580380149 -2.750986700174683 0.8357644957242345 0 0 0 
	 285 29 2 7.4482671605592135 -2.813730969295757 -1.6401402494126938 0 0 0 
	 286 29 2 8.14672035522822 -3.1302478624343095 -2.2177042642323297 0 0 0 
	 288 29 2 5.983718463976226 -2.0538108710099188 -1.4341825849320704 0 0 0 
	 289 29 2 5.217622962062245 -1.6104076658626314 -1.8057889352710805 0 0 0 
	 284 29 3 6.924556592939715 -2.825003715513113 1.3894472087334444 0 0 0 
	 287 29 3 8.554151385451808 -3.31488271676513 -2.5546166062104496 0 0 0 
	 290 29 3 4.770733919279092 -1.3517557961933795 -2.0225593063021696 0 0 0 
	 291 30 1 6.998056250368469 4.516568783689509 1.214313224030894 0 0 0 
	 292 30 2 6.59966834338873 4.082465630759802 1.9722324335702686 0 0 0 
	 293 30 2 6.201280436408992 3.6483624778300934 2.730151643109643 0 0 0 
	 295 30 2 7.885764053628492 4.27879472330647 0.9367553881836086 0 0 0 
	 296 30 2 8.773471856888513 4.041020662923431 0.6591975523363232 0 0 0 
	 298 30 2 6.508736354088185 5.188445997002256 0.7339518503388052 0 0 0 
	 299 30 2 6.019416457807902 5.860323210315002 0.2535904766467163 0 0 0 
	 294 30 4 5.968887490670811 3.395135638621097 3.172271182007611 0 0 0 
	 297 30 4 9.291301408790194 3.9023191276999922 0.49728881475874 0 0 0 
	 300 30 4 5.733979851644404 6.252251584747437 -0.026620324673668927 0 0 0 
	 301 31 1 -0.7016832606417189 -1.757373839814913 -6.090879535134444 0 0 0 
	 302 31 2 -0.5942464188297167 -2.6260513791140356 -6.48515945820774 0 0 0 
	 303 31 2 -0.48680957701771443 -3.494728918413158 -6.879439381281036 0 0 0 
	 305 31 2 -1.2837699091419386 -1.1130650873514019 -6.500319842305948 0 0 0 
	 306 31 2 -1.8658565576421582 -0.4687563348878905 -6.909760149477451 0 0 0 
	 308 31 2 -0.22703345395350183 -1.5330050529793016 -5.287159304889643 0 0 0 
	 309 31 2 0.24761635273471527 -1.30863626614369 -4.483439074644844 0 0 0 
	 304 31 3 -0.4241380859607131 -4.001457483004312 -7.109436003073792 0 0 0 
	 307 31 3 -2.2054071026006197 -0.09290956261750916 -7.148600328660828 0 0 0 
	 310 31 3 0.5244954066361753 -1.177754473822917 -4.014602273668711 0 0 0 
	 311 32 1 3.0733475336787235 -2.6139652956955333 6.500435093028191 0 0 0 
	 312 32 2 2.461411701698422 -2.6753223186478747 5.763298841529866 0 0 0 
	 313 32 2 1.8494758697181208 -2.736679341600216 5.026162590031541 0 0 0 
	 315 32 2 3.2163928953640673 -1.7708317425291829 6.936627523069558 0 0 0 
	 316 32 2 3.359438257049411 -0.9276981893628324 7.372819953110925 0 0 0 
	 318 32 2 3.542238003973681 -3.3957418259095435 6.80137891448515 0 0 0 
	 319 32 2 4.011128474268639 -4.177518356123552 7.102322735942106 0 0 0 
	 314 32 4 1.4925133010629448 -2.7724709383224155 4.596166443324186 0 0 0 
	 317 32 4 3.442881384699195 -0.4358702833491268 7.627265537301723 0 0 0 
	 320 32 4 4.28464791527403 -4.633554665415058 7.277873298458666 0 0 0 
	 321 33 1 6.093811247494347 5.353058568971038 -3.560374899307576 0 0 0 
	 322 33 2 6.828984549338725 5.2904201459023685 -4.174538268624493 0 0 0 
	 323 33 2 7.5641578511831 5.227781722833701 -4.788701637941408 0 0 0 
	 325 33 2 5.194131521856315 5.239446413013448 -3.8754442080232043 0 0 0 
	 326 33 2 4.294451796218281 5.125834257055855 -4.190513516738829 0 0 0 
	 328 33 2 6.258317671288002 5.5293091479973 -2.6311422212750317 0 0 0 
	 329 33 2 6.422824095081659 5.7055597270235605 -1.7019095432424896 0 0 0 
	 324 33 3 7.993008943925656 5.191242642710311 -5.146963603376279 0 0 0 
	 327 33 3 3.769638622929431 5.0595604994139265 -4.374303946822945 0 0 0 
	 330 33 3 6.5187861756279535 5.8083725647888755 -1.1598571477235091 0 0 0 
	 331 34 1 -7.659695190254199 -3.9916911830913504 -1.8982283325369576 0 0 0 
	 332 34 2 -8.465983579143682 -3.6179771669818463 -2.2613218027416813 0 0 0 
	 333 34 2 -9.272271968033163 -3.2442631508723423 -2.624415272946405 0 0 0 
	 335 34 2 -7.6064825732067645 -4.201133055292663 -0.9628660927839452 0 0 0 
	 336 34 2 -7.553269956159329 -4.410574927493975 -0.027503853030932834 0 0 0 
	 338 34 2 -6.906619418412152 -4.155963326999542 -2.470497102085246 0 0 0 
	 339 34 2 -6.153543646570106 -4.3202354709077335 -3.042765871633534 0 0 0 
	 334 34 4 -9.742606861552028 -3.026263308141798 -2.836219797232494 0 0 0 
	 337 34 4 -7.522229262881658 -4.532749352944741 0.5181241201583244 0 0 0 
	 340 34 4 -5.714249446328912 -4.416060888187512 -3.376589320536702 0 0 0 
	 341 35 1 0.39313344895217694 -6.540386191073148 1.7297705487288952 0 0 0 
	 342 35 2 -0.25576006292230646 -6.837401201569981 2.371891482655489 0 0 0 
	 343 35 2 -0.9046535747967936 -7.134416212066814 3.0140124165820836 0 0 0 
	 345 35 2 1.2042640563972475 -7.037672836524625 1.6018130170185492 0 0 0 
	 346 35 2 2.0153946638423217 -7.534959481976103 1.4738554853082029 0 0 0 
	 348 35 2 0.23089635338159398 -5.746084535124831 1.2156071465126463 0 0 0 
	 349 35 2 0.06865925781100857 -4.951782879176521 0.701443744296398 0 0 0 
	 344 35 3 -1.2831747900569064 -7.307674968189969 3.388582961372597 0 0 0 
	 347 35 3 2.488554184851945 -7.82504335848947 1.3992135918105026 0 0 0 
	 350 35 3 -0.025979047938501143 -4.488440246540004 0.4015150930035874 0 0 0 
	 351 36 1 5.417559692551011 7.299472858834585 -5.47716530696992 0 0 0 
	 352 36 2 6.134535302626522 7.936823349709097 -5.513638945928338 0 0 0 
	 353 36 2 6.851510912702032 8.574173840583608 -5.5501125848867545 0 0 0 
	 355 36 2 4.610700846505668 7.51132776611791 -5.002090259405485 0 0 0 
	 356 36 2 3.803842000460324 7.723182673401235 -4.527015211841048 0 0 0 
	 358 36 2 5.5074429285208435 6.450267460676749 -5.915766715575938 0 0 0 
	 359 36 2 5.597326164490676 5.601062062518913 -6.354368124181956 0 0 0 
	 354 36 4 7.269746685246081 8.945961626927073 -5.571388874279165 0 0 0 
	 357 36 4 3.3331743402672074 7.846764702649841 -4.249888100761795 0 0 0 
	 360 36 4 5.649758052139744 5.105692246926843 -6.6102189458688 0 0 0 
	 361 37 1 -6.808082875009705 -3.359784844855314 -7.355390209268671 0 0 0 
	 362 37 2 -6.639841826584124 -2.4574898844792434 -7.636741864861109 0 0 0 
	 363 37 2 -6.471600778158547 -1.5551949241031726 -7.91809352045355 0 0 0 
	 365 37 2 -6.631256874721454 -4.089850683827201 -7.9531664520120025 0 0 0 
	 366 37 2 -6.454430874433204 -4.819916522799087 -8.550942694755333 0 0 0 
	 368 37 2 -7.1531499237235305 -3.5320139662594987 -6.476262310932898 0 0 0 
	 369 37 2 -7.4982169724373575 -3.7042430876636843 -5.597134412597128 0 0 0 
	 364 37 3 -6.373460166576959 -1.0288561972171308 -8.082215319549139 0 0 0 
	 367 37 3 -6.351282374265061 -5.245788262199354 -8.899645503022281 0 0 0 
	 370 37 3 -7.699506084187089 -3.804710075149458 -5.084309805234593 0 0 0 
	 371 38 1 4.291290210502462 0.7989193766528343 -0.7207972629328157 0 0 0 
	 372 38 2 3.335747319716854 0.7940528861212235 -0.6285253758870402 0 0 0 
	 373 38 2 2.3802044289312456 0.7891863955896121 -0.5362534888412644 0 0 0 
	 375 38 2 4.704375640381003 1.325326221217587 -1.409169445416567 0 0 0 
	 376 38 2 5.117461070259543 1.8517330657823392 -2.097541627900319 0 0 0 
	 378 38 2 4.833747671409532 0.2773790226196935 -0.1246969674948393 0 0 0 
	 379 38 2 5.376205132316602 -0.24416133141344787 0.4714033279431358 0 0 0 
	 374 38 4 1.8228044093063076 0.7863476094461721 -0.4824282213978951 0 0 0 
	 377 38 4 5.358427571022023 2.1588037251117767 -2.4990920676825072 0 0 0 
	 380 38 4 5.692638651179059 -0.548393204599446 0.8191285002819545 0 0 0 
	 381 39 1 0.5511533750461554 1.0375282463413544 5.1562061828791 0 0 0 
	 382 39 2 -0.37388781841399 1.215279664595616 5.341417477649222 0 0 0 
	 383 39 2 -1.2989290118741321 1.3930310828498833 5.5266287724193495 0 0 0 
	 385 39 2 0.9653023599976794 0.24249540649324164 5.499722415139926 0 0 0 
	 386 39 2 1.3794513449491994 -0.552537433354866 5.843238647400748 0 0 0 
	 388 39 2 1.0620455835547826 1.654809667935198 4.627478655848153 0 0 0 
	 389 39 2 1.572937792063405 2.2720910895290425 4.098751128817202 0 0 0 
	 384 39 3 -1.838536374725884 1.496719410164872 5.634668694368585 0 0 0 
	 387 39 3 1.6210382528375886 -1.016306589932932 6.043623116219561 0 0 0 
	 390 39 3 1.8709582470267694 2.6321719187921193 3.7903267380491497 0 0 0 
	 391 40 1 -0.35398123209846677 5.839762289133585 -4.201403757098449 0 0 0 
	 392 40 2 -0.5572013926030357 6.637400513854205 -4.695443055969532 0 0 0 
	 393 40 2 -0.7604215531076055 7.435038738574827 -5.18948235484062 0 0 0 
	 395 40 2 -0.019489260652410523 5.064419242012231 -4.658085572281303 0 0 0 
	 396 40 2 0.3150027107936447 4.289076194890876 -5.1147673874641555 0 0 0 
	 398 40 2 -0.48525304303995065 5.8174671115343175 -3.2506826430445126 0 0 0 
	 399 40 2 -0.6165248539814363 5.795171933935054 -2.299961528990573 0 0 0 
	 394 40 4 -0.8789666467352709 7.900327702995189 -5.477671945848755 0 0 0 
	 397 40 4 0.5101230274705094 3.8367927507367536 -5.381165112987486 0 0 0 