LAMMPS FENE chain data file 

3000  atoms          
2700  bonds          
2700  angles         
0  dihedrals      
0  impropers    

4  atom types     
2  bond types     
2  angle types    
0  dihedral types 
0  improper types 

-15.000000 15.000000 xlo xhi  
-15.000000 15.000000 ylo yhi  
-15.000000 15.000000 zlo zhi  

Masses

	 1 1.0 
	 2 1.0 
	 3 1.0 
	 4 1.0 

Atoms 

	 1 1 1 -2.383991564775955 -1.8611111043164419 -4.93206425633355 0 0 0 
	 2 1 2 -2.5496762740241508 -1.344865029393139 -4.139827822402602 0 0 0 
	 3 1 2 -2.7153609832723467 -0.8286189544698361 -3.3475913884716553 0 0 0 
	 5 1 2 -2.4006925500996132 -2.8201404753092434 -4.89226799190621 0 0 0 
	 6 1 2 -2.4173935354232716 -3.779169846302045 -4.85247172747887 0 0 0 
	 8 1 2 -2.2016058702041006 -1.4183278082469437 -5.764096954691838 0 0 0 
	 9 1 2 -2.0192201756322463 -0.9755445121774455 -6.596129653050125 0 0 0 
	 4 1 3 -2.812010397000461 -0.527475410764576 -2.8854534686786026 0 0 0 
	 7 1 3 -2.427135776862072 -4.338603646047845 -4.829257239896254 0 0 0 
	 10 1 3 -1.9128285204653317 -0.7172542561369046 -7.0814820604257935 0 0 0 
	 11 2 1 8.285356203323131 7.629532125506727 -9.496615687571236 0 0 0 
	 12 2 2 8.504988350248476 8.121248886254909 -8.701897909214491 0 0 0 
	 13 2 2 8.724620497173822 8.61296564700309 -7.907180130857748 0 0 0 
	 15 2 2 8.776887616093529 6.836138124312364 -9.721388526519219 0 0 0 
	 16 2 2 9.268419028863926 6.042744123118 -9.946161365467201 0 0 0 
	 18 2 2 7.574192643627388 7.931209365952909 -10.066560626979998 0 0 0 
	 19 2 2 6.863029083931646 8.23288660639909 -10.636505566388758 0 0 0 
	 14 2 4 8.852739249546941 8.899800424106196 -7.443594760149647 0 0 0 
	 17 2 4 9.555145686313324 5.579930955754622 -10.077278854853525 0 0 0 
	 20 2 4 6.44818367410913 8.408864996659362 -10.968973447710535 0 0 0 
	 21 3 1 11.739464155251056 6.08971841364786 -9.116478129370782 0 0 0 
	 22 3 2 11.161732647025657 6.258029627043646 -8.368482380820803 0 0 0 
	 23 3 2 10.584001138800256 6.426340840439432 -7.620486632270826 0 0 0 
	 25 3 2 11.639344417718963 6.598557399991449 -9.92435121602074 0 0 0 
	 26 3 2 11.539224680186871 7.107396386335039 -10.732224302670701 0 0 0 
	 28 3 2 12.41731540100855 5.412568213908486 -9.056600791270801 0 0 0 
	 29 3 2 13.095166646766042 4.7354180141691105 -8.99672345317082 0 0 0 
	 24 3 3 10.246991092335438 6.524522381586974 -7.184155778950004 0 0 0 
	 27 3 3 11.480821499959816 7.4042191283687995 -11.20348360321651 0 0 0 
	 30 3 3 13.490579873457913 4.340413730987809 -8.961795005945831 0 0 0 
	 31 4 1 6.160747412049139 4.98204233398709 12.557987598848424 0 0 0 
	 32 4 2 6.781266794835876 4.374502873324899 12.148779217550752 0 0 0 
	 33 4 2 7.401786177622613 3.7669634126627085 11.73957083625308 0 0 0 
	 35 4 2 5.715209378415568 4.7369974738380725 13.37226573136856 0 0 0 
	 36 4 2 5.269671344781997 4.4919526136890555 14.186543863888696 0 0 0 
	 38 4 2 5.985766062895972 5.834626654798298 12.152917847625961 0 0 0 
	 39 4 2 5.810784713742805 6.687210975609506 11.747848096403498 0 0 0 
	 34 4 4 7.7637558175815435 3.4125653939430975 11.500865947162772 0 0 0 
	 37 4 4 5.009774158495748 4.349009778602128 14.661539441192108 0 0 0 
	 40 4 4 5.708712260070124 7.184551829416044 11.511557408190393 0 0 0 
	 41 5 1 -10.414393386064965 -3.506729877327307 10.477970358365795 0 0 0 
	 42 5 2 -10.138365124890772 -4.160650040859006 9.831598314756368 0 0 0 
	 43 5 2 -9.862336863716578 -4.814570204390706 9.185226271146941 0 0 0 
	 45 5 2 -10.914343054143966 -3.7776365320353724 11.251442991251135 0 0 0 
	 46 5 2 -11.414292722222967 -4.048543186743438 12.024915624136476 0 0 0 
	 48 5 2 -10.190471979160158 -2.581903059087542 10.350869769089881 0 0 0 
	 49 5 2 -9.96655057225535 -1.6570762408477773 10.223769179813967 0 0 0 
	 44 5 3 -9.701320378031632 -5.19602363311753 8.808175912374775 0 0 0 
	 47 5 3 -11.705930028602385 -4.2065720686564765 12.476107993319593 0 0 0 
	 50 5 3 -9.83592975156088 -1.1175939302079145 10.149627169403017 0 0 0 
	 51 6 1 2.340385109391895 -6.985484518447606 12.275995321692395 0 0 0 
	 52 6 2 2.0946783641303863 -7.786506135757541 11.807388275292993 0 0 0 
	 53 6 2 1.8489716188688776 -8.587527753067477 11.338781228893591 0 0 0 
	 55 6 2 2.305862296710196 -6.137326985972422 11.827623851246125 0 0 0 
	 56 6 2 2.2713394840284966 -5.289169453497237 11.379252380799855 0 0 0 
	 58 6 2 2.620614667335103 -7.032620433612855 13.192973838538068 0 0 0 
	 59 6 2 2.900844225278311 -7.079756348778104 14.10995235538374 0 0 0 
	 54 6 4 1.7056426841329975 -9.05479036316494 11.06542711849394 0 0 0 
	 57 6 4 2.251201176630839 -4.794410892886713 11.117702356372863 0 0 0 
	 60 6 4 3.064311467411849 -7.107252299291166 14.644856490210381 0 0 0 
	 61 7 1 8.569183481508276 -6.88034800126472 7.344411821502247 0 0 0 
	 62 7 2 9.28200881942149 -6.418383971388112 7.791702859562566 0 0 0 
	 63 7 2 9.994834157334703 -5.956419941511505 8.238993897622883 0 0 0 
	 65 7 2 8.498631716985184 -7.835297713484147 7.412920913269043 0 0 0 
	 66 7 2 8.428079952462092 -8.790247425703575 7.48143000503584 0 0 0 
	 68 7 2 7.926909908118154 -6.3873623189219 6.828611691675132 0 0 0 
	 69 7 2 7.284636334728033 -5.894376636579081 6.312811561848017 0 0 0 
	 64 7 3 10.410648937784078 -5.686940924083483 8.499913669824737 0 0 0 
	 67 7 3 8.386924756490288 -9.34730142449824 7.521393641899804 0 0 0 
	 70 7 3 6.909976750250461 -5.606801655212436 6.0119281527821995 0 0 0 
	 71 8 1 11.269177186673975 12.599798685792656 1.3802096155484367 0 0 0 
	 72 8 2 10.890044285235595 11.717864418820406 1.373124999324784 0 0 0 
	 73 8 2 10.510911383797216 10.835930151848157 1.3660403831011312 0 0 0 
	 75 8 2 11.916824871049602 12.838510953537108 2.047419425241902 0 0 0 
	 76 8 2 12.564472555425228 13.077223221281558 2.7146292349353667 0 0 0 
	 78 8 2 11.000662403736728 13.243020685020454 0.7200844220786248 0 0 0 
	 79 8 2 10.73214762079948 13.886242684248254 0.059959228608812865 0 0 0 
	 74 8 4 10.289750524624829 10.321468496114345 1.3619076903040004 0 0 0 
	 77 8 4 12.942267037977677 13.21647204413249 3.103834957256555 0 0 0 
	 80 8 4 10.575513997419419 14.261455517131136 -0.3251138009152441 0 0 0 
	 81 9 1 10.483797836775071 -9.207404506683055 -3.1701386431569754 0 0 0 
	 82 9 2 10.144606796363647 -10.099560850292837 -3.0671507960028643 0 0 0 
	 83 9 2 9.805415755952223 -10.991717193902621 -2.9641629488487533 0 0 0 
	 85 9 2 10.785186363602893 -8.716813472845233 -2.4019684840030973 0 0 0 
	 86 9 2 11.086574890430715 -8.226222439007413 -1.6337983248492192 0 0 0 
	 88 9 2 10.521600350358675 -8.805839196911093 -4.041296649464964 0 0 0 
	 89 9 2 10.559402863942278 -8.40427388713913 -4.912454655772953 0 0 0 
	 84 9 3 9.607554315712225 -11.512141727674994 -2.904086704675522 0 0 0 
	 87 9 3 11.26238486441361 -7.940044335935351 -1.1856990653427906 0 0 0 
	 90 9 3 10.58145433019938 -8.170027456438818 -5.420630159452613 0 0 0 
	 91 10 1 7.176091711313792 -11.874782425913018 -9.112207136786022 0 0 0 
	 92 10 2 7.2914217804962425 -12.551616458374772 -8.441241662529757 0 0 0 
	 93 10 2 7.4067518496786935 -13.228450490836524 -7.770276188273494 0 0 0 
	 95 10 2 6.622800075656231 -12.046991889233603 -9.877590874955457 0 0 0 
	 96 10 2 6.069508439998671 -12.219201352554187 -10.642974613124892 0 0 0 
	 98 10 2 7.614053277788902 -11.025738930130682 -9.017788872872853 0 0 0 
	 99 10 2 8.052014844264013 -10.176695434348346 -8.923370608959683 0 0 0 
	 94 10 4 7.474027723368456 -13.62327034310588 -7.378879661624005 0 0 0 
	 97 10 4 5.746754985865094 -12.319656872824527 -11.089448460390395 0 0 0 
	 100 10 4 8.307492424707826 -9.681420061808648 -8.868293288343667 0 0 0 
	 101 11 1 -5.275870582801304 10.3381031968751 10.062929994855317 0 0 0 
	 102 11 2 -5.548884318260379 10.036004062223293 10.93229735857063 0 0 0 
	 103 11 2 -5.821898053719454 9.733904927571485 11.801664722285942 0 0 0 
	 105 11 2 -4.426719708623786 10.068037407186603 9.705708407988727 0 0 0 
	 106 11 2 -3.577568834446267 9.797971617498108 9.348486821122135 0 0 0 
	 108 11 2 -5.852007721519748 10.910268121215402 9.550784218006594 0 0 0 
	 109 11 2 -6.428144860238191 11.482433045555705 9.038638441157874 0 0 0 
	 104 11 3 -5.9811560660705805 9.557680432357932 12.308795684453207 0 0 0 
	 107 11 3 -3.0822308245093817 9.640433240179819 9.140107562116624 0 0 0 
	 110 11 3 -6.76422485782395 11.816195918087548 8.73988673799612 0 0 0 
	 111 12 1 1.5381453348891572 -9.662137621044076 6.211487096345744 0 0 0 
	 112 12 2 2.096525492647098 -10.39164190905927 6.490117843374246 0 0 0 
	 113 12 2 2.6549056504050395 -11.121146197074465 6.768748590402748 0 0 0 
	 115 12 2 1.2601407303294874 -9.593235439492622 5.295208792978763 0 0 0 
	 116 12 2 0.9821361257698173 -9.524333257941167 4.378930489611783 0 0 0 
	 118 12 2 1.257769781690886 -9.001535514580336 6.849134652684222 0 0 0 
	 119 12 2 0.9773942284926147 -8.340933408116594 7.486782209022699 0 0 0 
	 114 12 4 2.9806274090971714 -11.546690365083329 6.931283192836041 0 0 0 
	 117 12 4 0.8199667731100101 -9.48414031870282 3.8444348126477115 0 0 0 
	 120 12 4 0.8138418224602901 -7.955582179346081 7.858743283553478 0 0 0 
	 121 13 1 4.298134483845725 0.24710433895568484 2.246517844865364 0 0 0 
	 122 13 2 4.741462532057112 -0.5716783411207802 2.012733404673372 0 0 0 
	 123 13 2 5.1847905802684995 -1.3904610211972452 1.7789489644813803 0 0 0 
	 125 13 2 4.799322097359276 1.0635342810177106 2.308591396118601 0 0 0 
	 126 13 2 5.300509710872828 1.8799642230797364 2.3706649473718375 0 0 0 
	 128 13 2 3.3536188221207874 0.24945707697012434 2.4182287338041193 0 0 0 
	 129 13 2 2.4091031603958495 0.25180981498456384 2.5899396227428744 0 0 0 
	 124 13 3 5.443398608391808 -1.8680842512418498 1.6425747077027184 0 0 0 
	 127 13 3 5.592869152089066 2.3562150226159186 2.4068745189362257 0 0 0 
	 130 13 3 1.8581356910563023 0.25318224549298673 2.6901043079571485 0 0 0 
	 131 14 1 1.8842716215778355 7.575260118515099 -9.655951216760615 0 0 0 
	 132 14 2 2.448359464239581 6.9254770713647185 -10.081611759208682 0 0 0 
	 133 14 2 3.0124473069013264 6.275694024214338 -10.507272301656752 0 0 0 
	 135 14 2 2.0406876766995112 8.512007669253347 -9.796087021914285 0 0 0 
	 136 14 2 2.197103731821187 9.448755219991593 -9.936222827067954 0 0 0 
	 138 14 2 1.1637677237944144 7.288295614927233 -9.090154869158876 0 0 0 
	 139 14 2 0.44326382601099334 7.001331111339367 -8.524358521557138 0 0 0 
	 134 14 4 3.3414985484540116 5.896653913376616 -10.755574284751457 0 0 0 
	 137 14 4 2.2883464306421644 9.995191291255571 -10.017968713407596 0 0 0 
	 140 14 4 0.022969885637331267 6.833935150913112 -8.194310652122791 0 0 0 
	 141 15 1 4.088785339422446 3.4203321693662825 -3.982802027071104 0 0 0 
	 142 15 2 3.502945546845412 3.061107973517385 -3.312466503210097 0 0 0 
	 143 15 2 2.9171057542683783 2.7018837776684883 -2.6421309793490897 0 0 0 
	 145 15 2 3.730871418039596 3.9491682018546133 -4.699621443397387 0 0 0 
	 146 15 2 3.3729574966567455 4.478004234342944 -5.416440859723669 0 0 0 
	 148 15 2 5.03253905338233 3.2507203327268495 -3.936318134605829 0 0 0 
	 149 15 2 5.976292767342215 3.081108496087416 -3.8898342421405543 0 0 0 
	 144 15 3 2.5753658752651085 2.4923363300899646 -2.251101923763502 0 0 0 
	 147 15 3 3.1641743758500827 4.786491919961136 -5.834585519247334 0 0 0 
	 150 15 3 6.526815767152147 2.982168258047747 -3.862718638202477 0 0 0 
	 151 16 1 8.688655122313664 12.230369808426374 -2.7490800863186573 0 0 0 
	 152 16 2 8.882570446813746 12.369297428074132 -3.6789703827639078 0 0 0 
	 153 16 2 9.076485771313829 12.50822504772189 -4.608860679209158 0 0 0 
	 155 16 2 9.330338191304369 12.484414768391238 -2.081769066413306 0 0 0 
	 156 16 2 9.972021260295076 12.7384597283561 -1.4144580465079544 0 0 0 
	 158 16 2 7.853056728822876 11.837397228813753 -2.486500809778758 0 0 0 
	 159 16 2 7.017458335332088 11.444424649201133 -2.223921533238859 0 0 0 
	 154 16 4 9.189603043938877 12.589266159183081 -5.151296685468888 0 0 0 
	 157 16 4 10.346336383872988 12.886652621668937 -1.0251932848964995 0 0 0 
	 160 16 4 6.530025939129128 11.215190644427105 -2.0707502885905846 0 0 0 
	 161 17 1 11.42632405011336 6.690112276256195 -3.8629586417746964 0 0 0 
	 162 17 2 11.39404574262091 6.629547204627031 -2.9054149179876427 0 0 0 
	 163 17 2 11.36176743512846 6.568982132997867 -1.947871194200589 0 0 0 
	 165 17 2 11.966124639123244 6.0750715587909685 -4.3648951317457305 0 0 0 
	 166 17 2 12.505925228133128 5.460030841325742 -4.866831621716765 0 0 0 
	 168 17 2 10.918801768595927 7.365718065350585 -4.318565875590716 0 0 0 
	 169 17 2 10.411279487078492 8.041323854444975 -4.7741731094067354 0 0 0 
	 164 17 3 11.342938422424531 6.533652507880855 -1.3893040219914745 0 0 0 
	 167 17 3 12.82080890505556 5.1012570894710265 -5.159627907533201 0 0 0 
	 170 17 3 10.11522482285999 8.435427231416702 -5.039943995799414 0 0 0 
	 171 18 1 -4.5486797081470325 1.1192575410724814 0.32614588578407044 0 0 0 
	 172 18 2 -4.73959200176754 1.995998843168203 0.6674334263478234 0 0 0 
	 173 18 2 -4.930504295388048 2.8727401452639247 1.0087209669115764 0 0 0 
	 175 18 2 -3.706651274494973 0.7012707791893985 0.5207613625888549 0 0 0 
	 176 18 2 -2.8646228408429133 0.2832840173063156 0.7153768393936393 0 0 0 
	 178 18 2 -5.199795848178584 0.6605030008598427 -0.20975713158446685 0 0 0 
	 179 18 2 -5.850911988210136 0.20174846064720398 -0.7456601489530041 0 0 0 
	 174 18 4 -5.04186980000001 3.3841725714864292 1.207805365573766 0 0 0 
	 177 18 4 -2.373439587879212 0.039458406207850905 0.8289025341964302 0 0 0 
	 180 18 4 -6.230729736561874 -0.06585835447683519 -1.0582702424179844 0 0 0 
	 181 19 1 -8.182786808853429 -13.04802269099231 -7.799501801541243 0 0 0 
	 182 19 2 -8.890475364901377 -13.62950184913748 -8.0870064037332 0 0 0 
	 183 19 2 -9.598163920949325 -14.21098100728265 -8.374511005925157 0 0 0 
	 185 19 2 -7.275189565358981 -13.360856842589245 -7.798074497822169 0 0 0 
	 186 19 2 -6.367592321864533 -13.673690994186178 -7.796647194103094 0 0 0 
	 188 19 2 -8.38269549629993 -12.153709381250207 -7.513424503068361 0 0 0 
	 189 19 2 -8.582604183746428 -11.259396071508103 -7.227347204595478 0 0 0 
	 184 19 3 -10.010982245310627 -14.550177182867332 -8.542222023870465 0 0 0 
	 187 19 3 -5.838160596492772 -13.856177582617722 -7.795814600266967 0 0 0 
	 190 19 3 -8.699217584756886 -10.737713307491877 -7.060468780486297 0 0 0 
	 191 20 1 0.9343586064872422 2.766828552178012 5.141204479722697 0 0 0 
	 192 20 2 1.786036698462865 3.2097346821779835 5.132339511746958 0 0 0 
	 193 20 2 2.637714790438488 3.652640812177955 5.123474543771218 0 0 0 
	 195 20 2 0.5958558072296101 2.3937014993460037 5.9583899282835775 0 0 0 
	 196 20 2 0.2573530079719779 2.0205744465139954 6.775575376844458 0 0 0 
	 198 20 2 0.42118331376925144 2.697049475010049 4.332883999137557 0 0 0 
	 199 20 2 -0.09199197894873934 2.6272703978420857 3.524563518552417 0 0 0 
	 194 20 4 3.1345270107576013 3.911002721344605 5.118303312452036 0 0 0 
	 197 20 4 0.05989304173835941 1.8029169990286573 7.25226688850497 0 0 0 
	 200 20 4 -0.3913442330342336 2.586565936160774 3.0530432382110853 0 0 0 
	 201 21 1 -3.5578045559834504 -9.504859131243903 -11.845949033123189 0 0 0 
	 202 21 2 -2.769455421493844 -9.37468906553784 -11.313819917077497 0 0 0 
	 203 21 2 -1.9811062870042382 -9.244518999831778 -10.781690801031806 0 0 0 
	 205 21 2 -3.907215983426914 -8.781280333857254 -12.371254066741194 0 0 0 
	 206 21 2 -4.256627410870378 -8.057701536470606 -12.896559100359198 0 0 0 
	 208 21 2 -3.996742263029593 -10.358607994336612 -11.852773115550875 0 0 0 
	 209 21 2 -4.435679970075736 -11.212356857429322 -11.859597197978562 0 0 0 
	 204 21 3 -1.5212359585519684 -9.168586461503242 -10.471282150005152 0 0 0 
	 207 21 3 -4.4604507435457315 -7.635613904661728 -13.202987036636369 0 0 0 
	 210 21 3 -4.691726965852652 -11.710377027566736 -11.863577912728045 0 0 0 
	 211 22 1 -6.809273395695112 -8.471409499348416 0.8596154961471048 0 0 0 
	 212 22 2 -7.254355167829839 -9.116302782193628 0.3049851058379033 0 0 0 
	 213 22 2 -7.699436939964566 -9.761196065038838 -0.2496452844712982 0 0 0 
	 215 22 2 -7.088342005681886 -8.346964373959633 1.7696891863980757 0 0 0 
	 216 22 2 -7.367410615668659 -8.22251924857085 2.679762876649047 0 0 0 
	 218 22 2 -6.085123013573613 -7.950961341891988 0.5041721962053357 0 0 0 
	 219 22 2 -5.360972631452112 -7.4305131844355605 0.14872889626356667 0 0 0 
	 214 22 4 -7.959067973709824 -10.137383813365211 -0.5731796788183325 0 0 0 
	 217 22 4 -7.530200638160943 -8.149926258760726 3.210639195962113 0 0 0 
	 220 22 4 -4.9385515752145706 -7.12691842591931 -0.05861302870246554 0 0 0 
	 221 23 1 5.622676743777005 7.27203226369126 -3.1076064936554912 0 0 0 
	 222 23 2 6.386768079451594 6.6927321084496585 -3.060961441569786 0 0 0 
	 223 23 2 7.150859415126184 6.113431953208057 -3.0143163894840805 0 0 0 
	 225 23 2 4.931641931350307 7.209426440883917 -2.4441674241359053 0 0 0 
	 226 23 2 4.240607118923609 7.146820618076574 -1.7807283546163188 0 0 0 
	 228 23 2 5.549620220529112 7.913938241740205 -3.8176906152607826 0 0 0 
	 229 23 2 5.47656369728122 8.555844219789149 -4.527774736866074 0 0 0 
	 224 23 3 7.596579360936361 5.775506862650456 -2.987106775767419 0 0 0 
	 227 23 3 3.8375034783413695 7.110300554772291 -1.3937222307298938 0 0 0 
	 230 23 3 5.433947392053283 8.930289373651034 -4.9419904744691605 0 0 0 
	 231 24 1 -4.429433901428247 -3.702599395194475 1.4754026206707131 0 0 0 
	 232 24 2 -3.8092200947929618 -4.197640415224406 0.9351533980459188 0 0 0 
	 233 24 2 -3.189006288157676 -4.692681435254335 0.39490417542112427 0 0 0 
	 235 24 2 -4.760484288748185 -2.8544243897610118 1.1710922507960366 0 0 0 
	 236 24 2 -5.091534676068123 -2.006249384327548 0.8667818809213603 0 0 0 
	 238 24 2 -4.718597320743596 -4.055733380598009 2.319962213170185 0 0 0 
	 239 24 2 -5.007760740058942 -4.408867366001543 3.164521805669656 0 0 0 
	 234 24 4 -2.8272149009537593 -4.981455363605128 0.07975879555666063 0 0 0 
	 237 24 4 -5.2846474020047545 -1.5114806311580278 0.6892674984944662 0 0 0 
	 240 24 4 -5.176439401326229 -4.614862190820271 3.657181567961014 0 0 0 
	 241 25 1 12.74952617736505 12.0889919776146 -10.979737506789359 0 0 0 
	 242 25 2 12.884770535497028 12.966840804333929 -10.615470570297767 0 0 0 
	 243 25 2 13.020014893629003 13.844689631053257 -10.251203633806174 0 0 0 
	 245 25 2 12.26534667732276 11.429993477943505 -10.476854628605937 0 0 0 
	 246 25 2 11.781167177280471 10.770994978272409 -9.973971750422514 0 0 0 
	 248 25 2 13.098461319275362 11.870141650566369 -11.846887321464374 0 0 0 
	 249 25 2 13.447396461185676 11.651291323518137 -12.714037136139387 0 0 0 
	 244 25 3 13.098907435872658 14.356768113306197 -10.038714587519413 0 0 0 
	 247 25 3 11.498729135589135 10.386579186797604 -9.680623404815517 0 0 0 
	 250 25 3 13.650941960633357 11.523628632740001 -13.219874528033145 0 0 0 
	 251 26 1 -1.729861018415002 0.794351381280608 8.486528319481131 0 0 0 
	 252 26 2 -1.6058037662587756 0.011152122118729624 7.945410292951122 0 0 0 
	 253 26 2 -1.4817465141025492 -0.7720471370431488 7.4042922664211135 0 0 0 
	 255 26 2 -1.4628800465728486 1.6545462756331808 8.154284577020892 0 0 0 
	 256 26 2 -1.1958990747306952 2.5147411699857534 7.822040834560653 0 0 0 
	 258 26 2 -2.1208992424133815 0.7173557460899141 9.359890088471378 0 0 0 
	 259 26 2 -2.5119374664117613 0.6403601108992203 10.233251857461626 0 0 0 
	 254 26 4 -1.409379783678084 -1.2289133715542448 7.088640084278609 0 0 0 
	 257 26 4 -1.040160174489439 3.0165215250247543 7.628231984792181 0 0 0 
	 260 26 4 -2.740043097077483 0.5954459903713151 10.742712889372605 0 0 0 
	 261 27 1 -0.9820557203835889 -8.249656962903305 12.843628423195959 0 0 0 
	 262 27 2 -1.6284478429937692 -8.575111874931816 13.474386953906421 0 0 0 
	 263 27 2 -2.2748399656039497 -8.900566786960326 14.105145484616882 0 0 0 
	 265 27 2 -0.3900994541736673 -7.534694071713676 13.08860973496601 0 0 0 
	 266 27 2 0.20185681203625427 -6.819731180524046 13.333591046736059 0 0 0 
	 268 27 2 -0.9276198639833297 -8.639164942064426 11.967888580715448 0 0 0 
	 269 27 2 -0.8731840075830706 -9.028672921225544 11.092148738234936 0 0 0 
	 264 27 3 -2.651902037126555 -9.090415485643621 14.473087960864651 0 0 0 
	 267 27 3 0.5471646339920415 -6.402669493996763 13.476496811935256 0 0 0 
	 270 27 3 -0.8414297580162529 -9.25588590906953 10.581300496787971 0 0 0 
	 271 28 1 -7.547381475470334 3.2217250153664545 10.296154334060807 0 0 0 
	 272 28 2 -7.3082219714287655 4.0855469788069545 9.9523312005977 0 0 0 
	 273 28 2 -7.069062467387197 4.949368942247455 9.60850806713459 0 0 0 
	 275 28 2 -8.109810641761252 3.1524272908190625 11.07105513950487 0 0 0 
	 276 28 2 -8.672239808052169 3.0831295662716705 11.845955944948933 0 0 0 
	 278 28 2 -7.224111813220985 2.4272007764733465 9.865076662079852 0 0 0 
	 279 28 2 -6.900842150971636 1.6326765375802386 9.433998990098898 0 0 0 
	 274 28 4 -6.929552756696282 5.453265087587747 9.407944572614445 0 0 0 
	 277 28 4 -9.000323488388538 3.042705893619025 12.297981414791302 0 0 0 
	 280 28 4 -6.712268181326182 1.1692040648925919 9.182537014776676 0 0 0 
	 281 29 1 3.51350850641333 10.44251753139709 11.914743149633631 0 0 0 
	 282 29 2 4.080350704069881 9.667742184804675 11.91112579307199 0 0 0 
	 283 29 2 4.647192901726431 8.892966838212258 11.907508436510348 0 0 0 
	 285 29 2 2.8026200080801336 10.514175787826698 12.555916010275004 0 0 0 
	 286 29 2 2.0917315097469373 10.585834044256307 13.197088870916378 0 0 0 
	 288 29 2 3.6575548070899755 11.145634621559898 11.2771876455539 0 0 0 
	 289 29 2 3.8016011077666207 11.848751711722706 10.63963214147417 0 0 0 
	 284 29 3 4.9778508503594185 8.441014552700016 11.90539831184939 0 0 0 
	 287 29 3 1.677046552385906 10.627634693840246 13.571106372957178 0 0 0 
	 290 29 3 3.885628116494664 12.25890334765101 10.267724764094327 0 0 0 
	 291 30 1 0.1077664594998895 -5.576139089887643 -13.810585569344898 0 0 0 
	 292 30 2 1.0672401327910221 -5.575696980253789 -13.842367243314218 0 0 0 
	 293 30 2 2.026713806082155 -5.575254870619935 -13.874148917283538 0 0 0 
	 295 30 2 -0.3812215968169893 -6.355424022855278 -14.084822098693323 0 0 0 
	 296 30 2 -0.8702096531338681 -7.134708955822912 -14.359058628041748 0 0 0 
	 298 30 2 -0.36271915747436445 -4.797296266553862 -13.504567366027153 0 0 0 
	 299 30 2 -0.8332047744486184 -4.018453443220081 -13.19854916270941 0 0 0 
	 294 30 4 2.586406782168649 -5.574996973333521 -13.892688227098974 0 0 0 
	 297 30 4 -1.1554526859853809 -7.589291833387366 -14.519029936828328 0 0 0 
	 300 30 4 -1.1076547176836 -3.564128462942042 -13.020038544107392 0 0 0 
	 301 31 1 -2.8214845000450364 11.79010218230631 3.491675979612634 0 0 0 
	 302 31 2 -2.544102642377381 12.359961928615665 4.21273019017733 0 0 0 
	 303 31 2 -2.266720784709726 12.92982167492502 4.933784400742027 0 0 0 
	 305 31 2 -2.91933834529076 12.14894337095989 2.6066575468688225 0 0 0 
	 306 31 2 -3.017192190536484 12.50778455961347 1.7216391141250114 0 0 0 
	 308 31 2 -3.0010125124669678 10.861401247343375 3.655640201791748 0 0 0 
	 309 31 2 -3.180540524888899 9.93270031238044 3.819604423970863 0 0 0 
	 304 31 3 -2.1049147010702605 13.262239860272144 5.354399356904767 0 0 0 
	 307 31 3 -3.0742736002631563 12.717108586328056 1.2053783616911216 0 0 0 
	 310 31 3 -3.2852651988016923 9.390958100318729 3.915250220242013 0 0 0 
	 311 32 1 -5.378637217032071 -8.29431980066385 6.141121449353257 0 0 0 
	 312 32 2 -5.702604723747082 -8.530553375166221 5.268860735535025 0 0 0 
	 313 32 2 -6.026572230462093 -8.76678694966859 4.396600021716792 0 0 0 
	 315 32 2 -4.453712617681887 -8.068906399270723 6.26482789214943 0 0 0 
	 316 32 2 -3.5287880183317033 -7.843492997877595 6.388534334945603 0 0 0 
	 318 32 2 -5.9795943096672435 -8.283499627554606 6.889675720375316 0 0 0 
	 319 32 2 -6.580551402302416 -8.272679454445361 7.638229991397376 0 0 0 
	 314 32 4 -6.215553276045849 -8.904589868128308 3.88778127198949 0 0 0 
	 317 32 4 -2.9892486687107627 -7.712001847064938 6.460696426576704 0 0 0 
	 320 32 4 -6.9311097063396 -8.266367686798304 8.074886649493576 0 0 0 
	 321 33 1 10.378507238605028 -7.930806707982407 2.0844984293732347 0 0 0 
	 322 33 2 9.604006807605332 -8.227795379486261 1.6012316175811776 0 0 0 
	 323 33 2 8.829506376605636 -8.524784050990117 1.1179648057891205 0 0 0 
	 325 33 2 11.18476561684085 -7.712144053836048 1.6114930687205107 0 0 0 
	 326 33 2 11.99102399507667 -7.4934813996896885 1.1384877080677867 0 0 0 
	 328 33 2 10.346749291368903 -7.852480690624912 3.0407706018180156 0 0 0 
	 329 33 2 10.31499134413278 -7.774154673267416 3.9970427742627965 0 0 0 
	 324 33 3 8.377714458522478 -8.698027442700699 0.8360591655770868 0 0 0 
	 327 33 3 12.4613413823809 -7.365928184770979 0.8625679143536977 0 0 0 
	 330 33 3 10.296465874911707 -7.728464496475544 4.554868208188919 0 0 0 
	 331 34 1 0.33800214429113073 0.7871033337014621 -2.2780421315746544 0 0 0 
	 332 34 2 0.635646733990037 1.4289041049033016 -1.6291203579318725 0 0 0 
	 333 34 2 0.9332913236889433 2.070704876105141 -0.9801985842890906 0 0 0 
	 335 34 2 -0.5709712369025796 0.4785211882862587 -2.266023320808846 0 0 0 
	 336 34 2 -1.4799446180962899 0.16993904287105532 -2.2540045100430377 0 0 0 
	 338 34 2 0.9493309357859343 0.45388470791482594 -2.9389827159832445 0 0 0 
	 339 34 2 1.5606597272807379 0.12066608212818974 -3.5999233003918345 0 0 0 
	 334 34 4 1.1069173343466385 2.445088659306214 -0.6016608829974674 0 0 0 
	 337 34 4 -2.010179090459288 -0.010067208621146628 -2.246993537096316 0 0 0 
	 340 34 4 1.91726818898604 -0.07371144958068121 -3.9854719746301788 0 0 0 
	 341 35 1 7.447329253423781 -2.5884062582183773 -4.2539670980366875 0 0 0 
	 342 35 2 8.328148904333945 -2.274184360202709 -4.470811146555268 0 0 0 
	 343 35 2 9.208968555244109 -1.9599624621870406 -4.687655195073848 0 0 0 
	 345 35 2 7.0013425599183465 -2.2627847954764455 -3.4686859176828646 0 0 0 
	 346 35 2 6.555355866412911 -1.9371633327345135 -2.6834047373290417 0 0 0 
	 348 35 2 7.0124962960190524 -3.2282496189759775 -4.82240422987193 0 0 0 
	 349 35 2 6.577663338614324 -3.8680929797335777 -5.390841361707173 0 0 0 
	 344 35 3 9.722780018275039 -1.7766663550112338 -4.8141475567096865 0 0 0 
	 347 35 3 6.295196961868074 -1.7472174794683866 -2.2253240487893113 0 0 0 
	 350 35 3 6.324010780128233 -4.241334940175511 -5.722429688611065 0 0 0 
	 351 36 1 -5.758601898490181 -11.685914920315158 4.157182353044949 0 0 0 
	 352 36 2 -6.253491787192133 -11.303801214020153 3.428709214540816 0 0 0 
	 353 36 2 -6.748381675894086 -10.921687507725146 2.700236076036682 0 0 0 
	 355 36 2 -5.02439874196466 -12.278527606830444 3.9801062995281153 0 0 0 
	 356 36 2 -4.2901955854391405 -12.871140293345732 3.8030302460112817 0 0 0 
	 358 36 2 -5.9979151663137475 -11.475415940094877 5.062731545065917 0 0 0 
	 359 36 2 -6.237228434137314 -11.264916959874595 5.968280737086884 0 0 0 
	 354 36 4 -7.037067444303559 -10.698787845719727 2.2752934119092707 0 0 0 
	 357 36 4 -3.8619104107992546 -13.216831027146316 3.6997358814597954 0 0 0 
	 360 36 4 -6.376827840367728 -11.14212588807943 6.496517765765782 0 0 0 
	 361 37 1 7.055078395196768 -2.8384715959669022 12.010811094012967 0 0 0 
	 362 37 2 7.3759037973069335 -2.4011877490616405 12.802930970418416 0 0 0 
	 363 37 2 7.6967291994171 -1.9639039021563782 13.595050846823868 0 0 0 
	 365 37 2 6.126100501339607 -2.7835900551245842 11.775039829437544 0 0 0 
	 366 37 2 5.197122607482451 -2.7287085142822654 11.539268564862127 0 0 0 
	 368 37 2 7.663230886943757 -3.3306369837144825 11.454462482182937 0 0 0 
	 369 37 2 8.271383378690746 -3.8228023714620623 10.898113870352905 0 0 0 
	 364 37 3 7.8838773506480315 -1.708821658128309 14.057120774727046 0 0 0 
	 367 37 3 4.655218836065776 -2.6966942821242466 11.401735327193132 0 0 0 
	 370 37 3 8.626138998876492 -4.109898847648152 10.573577180118722 0 0 0 
	 371 38 1 5.856049384805092 -5.678043365062264 11.008990836857851 0 0 0 
	 372 38 2 5.496492986440188 -4.9042150234088835 10.569094378530625 0 0 0 
	 373 38 2 5.136936588075284 -4.1303866817555 10.129197920203405 0 0 0 
	 375 38 2 6.146920735950163 -6.432524393500752 10.491543028079567 0 0 0 
	 376 38 2 6.437792087095235 -7.187005421939238 9.974095219301288 0 0 0 
	 378 38 2 5.924734432024927 -5.697390678277163 11.966335103963354 0 0 0 
	 379 38 2 5.993419479244761 -5.716737991492057 12.923679371068856 0 0 0 
	 374 38 4 4.927195355695758 -3.6789868157910273 9.872591652845859 0 0 0 
	 377 38 4 6.607467041929857 -7.627119355195022 9.672250664180625 0 0 0 
	 380 38 4 6.033485756789664 -5.72802392420075 13.482130193547068 0 0 0 
	 381 39 1 -4.437894230469456 7.34902749340608 -2.9408073778970047 0 0 0 
	 382 39 2 -5.3615267683869945 7.509019425930638 -2.7336709097725795 0 0 0 
	 383 39 2 -6.285159306304536 7.669011358455197 -2.5265344416481543 0 0 0 
	 385 39 2 -4.138508374007726 6.459723009196963 -3.1435526449594744 0 0 0 
	 386 39 2 -3.839122517545997 5.570418524987844 -3.346297912021945 0 0 0 
	 388 39 2 -3.8136475490136457 8.078340045090638 -2.94519857895896 0 0 0 
	 389 39 2 -3.189400867557835 8.807652596775196 -2.949589780020915 0 0 0 
	 384 39 3 -6.8239449534231 7.762339985761188 -2.4057048352422394 0 0 0 
	 387 39 3 -3.6644807679433207 5.051657575865859 -3.464565984475052 0 0 0 
	 390 39 3 -2.825256970041945 9.233084918591187 -2.952151313973721 0 0 0 
	 391 40 1 -12.651444324066208 10.9367326794154 -3.0174333066738592 0 0 0 
	 392 40 2 -11.877639484432251 11.494627235732947 -2.9098241333180894 0 0 0 
	 393 40 2 -11.103834644798294 12.052521792050495 -2.80221495996232 0 0 0 
	 395 40 2 -12.546456116706832 10.00408863998389 -3.2193059695788184 0 0 0 
	 396 40 2 -12.441467909347454 9.071444600552379 -3.421178632483777 0 0 0 
	 398 40 2 -13.530237371059542 11.311482162529362 -2.92316981712467 0 0 0 
	 399 40 2 -14.409030418052875 11.686231645643323 -2.828906327575481 0 0 0 
	 394 40 4 -10.652448488345152 12.377960283235732 -2.739442942171454 0 0 0 
	 397 40 4 -12.380224788387817 8.527402244217331 -3.5389376858450032 0 0 0 