LAMMPS FENE chain data file 

3000  atoms          
2700  bonds          
2700  angles         
0  dihedrals      
0  impropers    

4  atom types     
2  bond types     
2  angle types    
0  dihedral types 
0  improper types 

-15.000000 15.000000 xlo xhi  
-15.000000 15.000000 ylo yhi  
-15.000000 15.000000 zlo zhi  

Masses

	 1 1.0 
	 2 1.0 
	 3 1.0 
	 4 1.0 

Atoms 

	 1 1 1 -12.026993320722227 -12.901050158774499 -12.232788202059723 0 0 0 
	 2 1 2 -12.564547649445396 -12.88772904558063 -13.028060414333142 0 0 0 
	 3 1 2 -13.102101978168564 -12.87440793238676 -13.823332626606563 0 0 0 
	 5 1 2 -11.537735671547187 -12.117680758624228 -11.970949825132429 0 0 0 
	 6 1 2 -11.048478022372148 -11.334311358473958 -11.709111448205133 0 0 0 
	 8 1 2 -11.978696641174096 -13.697740672118638 -11.699354366713598 0 0 0 
	 9 1 2 -11.930399961625966 -14.494431185462778 -11.165920531367473 0 0 0 
	 4 1 3 -13.415675336590414 -12.86663728302367 -14.287241417099391 0 0 0 
	 7 1 3 -10.763077727020043 -10.877345875052967 -11.556372394997545 0 0 0 
	 10 1 3 -11.902226898556224 -14.959167318246859 -10.854750794082234 0 0 0 
	 11 2 1 -1.8868537737604718 -9.524733557826972 3.2329933933726416 0 0 0 
	 12 2 2 -1.0987277460747902 -9.064977395402146 3.5314588613865907 0 0 0 
	 13 2 2 -0.31060171838910855 -8.605221232977321 3.8299243294005403 0 0 0 
	 15 2 2 -2.7456021409525615 -9.101699793198472 3.3050605553062162 0 0 0 
	 16 2 2 -3.604350508144651 -8.678666028569975 3.377127717239791 0 0 0 
	 18 2 2 -1.8162314342540642 -10.407523484880295 2.8624607634251173 0 0 0 
	 19 2 2 -1.7456090947476566 -11.290313411933619 2.4919281334775936 0 0 0 
	 14 2 4 0.14913846442753909 -8.337030138229506 4.00402918574201 0 0 0 
	 17 2 4 -4.10528705567337 -8.431896332536684 3.4191668950343765 0 0 0 
	 20 2 4 -1.7044127300355851 -11.805274202714724 2.2757840993415384 0 0 0 
	 21 3 1 11.671633668658641 -0.5990287907710545 -10.01578314644702 0 0 0 
	 22 3 2 12.45968847917015 -0.3665465608812279 -10.512292590884005 0 0 0 
	 23 3 2 13.24774328968166 -0.13406433099140125 -11.00880203532099 0 0 0 
	 25 3 2 10.977304376936168 0.05097342999382404 -9.885383960648591 0 0 0 
	 26 3 2 10.282975085213693 0.7009756507587026 -9.754984774850161 0 0 0 
	 28 3 2 11.577908149869605 -1.4815132414257595 -9.649672887808466 0 0 0 
	 29 3 2 11.484182631080571 -2.3639976920804644 -9.28356262916991 0 0 0 
	 24 3 3 13.707441929146706 0.0015503031109977972 -11.298432544575899 0 0 0 
	 27 3 3 9.87794966504225 1.0801436128715483 -9.678918583134411 0 0 0 
	 30 3 3 11.429509411786968 -2.878780288295709 -9.069998311630753 0 0 0 
	 31 4 1 2.5760369399256042 5.892033422390865 7.888236502148176 0 0 0 
	 32 4 2 2.9387758553660523 6.061509640847873 8.760760593851437 0 0 0 
	 33 4 2 3.3015147708065005 6.23098585930488 9.633284685554697 0 0 0 
	 35 4 2 1.7081988253624405 6.229943890333452 7.655269717892834 0 0 0 
	 36 4 2 0.840360710799277 6.56785435827604 7.422302933637492 0 0 0 
	 38 4 2 3.0811361390483194 5.38464673599127 7.248679194700258 0 0 0 
	 39 4 2 3.5862353381710346 4.877260049591675 6.60912188725234 0 0 0 
	 34 4 4 3.5131124714800954 6.329846986738135 10.1422570723816 0 0 0 
	 37 4 4 0.3341218106374324 6.764968797909216 7.286405642821875 0 0 0 
	 40 4 4 3.880876537659285 4.581284482525245 6.236046791241055 0 0 0 
	 41 5 1 -1.9024039447201102 8.925803773703691 6.046071059811069 0 0 0 
	 42 5 2 -1.4397839210470862 9.306400916798262 6.7962233965834224 0 0 0 
	 43 5 2 -0.9771638973740622 9.686998059892831 7.5463757333557755 0 0 0 
	 45 5 2 -2.846002388495995 9.068209050235938 5.9414636312053375 0 0 0 
	 46 5 2 -3.7896008322718795 9.210614326768184 5.8368562025996065 0 0 0 
	 48 5 2 -1.4214255246172502 8.402801354076875 5.400526151644448 0 0 0 
	 49 5 2 -0.9404471045143902 7.879798934450059 4.754981243477827 0 0 0 
	 44 5 3 -0.7073022168981316 9.90901306003133 7.9839645964729815 0 0 0 
	 47 5 3 -4.3400332578078125 9.293684071411995 5.7758352025795965 0 0 0 
	 50 5 3 -0.6598763594543884 7.574714189667749 4.37841338038063 0 0 0 
	 51 6 1 -8.064904910214256 -11.133994345214184 1.886992246675866 0 0 0 
	 52 6 2 -7.82517129629514 -11.35339418763849 2.7903147270235378 0 0 0 
	 53 6 2 -7.585437682376024 -11.572794030062795 3.6936372073712094 0 0 0 
	 55 6 2 -7.833173233984826 -11.72966544398222 1.1706987507369615 0 0 0 
	 56 6 2 -7.601441557755394 -12.325336542750259 0.45440525479805705 0 0 0 
	 58 6 2 -8.536370200362803 -10.318923404021842 1.6999632622670982 0 0 0 
	 59 6 2 -9.00783549051135 -9.5038524628295 1.5129342778583306 0 0 0 
	 54 6 4 -7.445593074256539 -11.700777271476973 4.2205753209073515 0 0 0 
	 57 6 4 -7.46626474662156 -12.672811350364947 0.03656738216703004 0 0 0 
	 60 6 4 -9.28285690976467 -9.028394413800633 1.4038340369532163 0 0 0 
	 61 7 1 -13.069858168883878 -10.19035722358019 -5.371606447037732 0 0 0 
	 62 7 2 -13.678353419047513 -9.480627856022016 -5.58982137630191 0 0 0 
	 63 7 2 -14.286848669211146 -8.770898488463843 -5.808036305566089 0 0 0 
	 65 7 2 -12.227707389169957 -9.989989899753306 -4.9565943992973205 0 0 0 
	 66 7 2 -11.385556609456037 -9.789622575926424 -4.54158235155691 0 0 0 
	 68 7 2 -13.303513698434163 -11.100453914965247 -5.5684035655139645 0 0 0 
	 69 7 2 -13.537169227984448 -12.010550606350304 -5.765200683990197 0 0 0 
	 64 7 3 -14.6418042318066 -8.356889690721573 -5.93532834763686 0 0 0 
	 67 7 3 -10.89430198795625 -9.672741637027409 -4.299491990375003 0 0 0 
	 70 7 3 -13.673468286888781 -12.541440342991587 -5.879999003101333 0 0 0 
	 71 8 1 -7.5799410107978815 -5.600665009443315 0.4503497014477864 0 0 0 
	 72 8 2 -7.688573565091238 -4.903665248734056 1.1014950782408157 0 0 0 
	 73 8 2 -7.797206119384594 -4.206665488024797 1.752640455033845 0 0 0 
	 75 8 2 -7.917024321177951 -6.48153769893069 0.6293417313778723 0 0 0 
	 76 8 2 -8.254107631558021 -7.3624103884180645 0.8083337613079582 0 0 0 
	 78 8 2 -7.134225146124456 -5.4167920806652 -0.37978770527532857 0 0 0 
	 79 8 2 -6.68850928145103 -5.232919151887085 -1.2099251119984435 0 0 0 
	 74 8 4 -7.8605751093890515 -3.800082294277728 2.132475258163112 0 0 0 
	 77 8 4 -8.45073956261306 -7.8762527906190325 0.912745778767175 0 0 0 
	 80 8 4 -6.4285083603915325 -5.125659943433185 -1.6941719325869269 0 0 0 
	 81 9 1 -2.359855914847504 -4.89853078898744 -1.6000790801505549 0 0 0 
	 82 9 2 -1.4717988359941556 -4.956751981672338 -1.9600303510481663 0 0 0 
	 83 9 2 -0.5837417571408072 -5.014973174357236 -2.3199816219457774 0 0 0 
	 85 9 2 -2.5186407693263373 -4.406404199256344 -0.791253518198055 0 0 0 
	 86 9 2 -2.6774256238051706 -3.9142776095252483 0.017572043754444877 0 0 0 
	 88 9 2 -3.089128139222019 -5.332436186033638 -2.0489533712054433 0 0 0 
	 89 9 2 -3.818400363596534 -5.766341583079835 -2.497827662260331 0 0 0 
	 84 9 3 -0.06570846114302054 -5.04893553675676 -2.529953196636051 0 0 0 
	 87 9 3 -2.7700501222511567 -3.6272037655154428 0.4893869548934029 0 0 0 
	 90 9 3 -4.243809161148334 -6.019453064690117 -2.759670998709016 0 0 0 
	 91 10 1 -6.883710674815438 -12.675767927185797 -10.24812757394778 0 0 0 
	 92 10 2 -5.94517957132865 -12.485847187407318 -10.316607354831383 0 0 0 
	 93 10 2 -5.0066484678418615 -12.295926447628839 -10.385087135714986 0 0 0 
	 95 10 2 -7.5219145946214665 -12.104595013372737 -10.681783266024476 0 0 0 
	 96 10 2 -8.160118514427495 -11.533422099559676 -11.115438958101173 0 0 0 
	 98 10 2 -7.184037858496199 -13.436861580777336 -9.74599210098748 0 0 0 
	 99 10 2 -7.484365042176958 -14.197955234368877 -9.24385662802718 0 0 0 
	 94 10 4 -4.459171990807901 -12.185139349424725 -10.425033674563755 0 0 0 
	 97 10 4 -8.532404134314344 -11.20023789983539 -11.368404778479247 0 0 0 
	 100 10 4 -7.659555899324069 -14.641926532297274 -8.950944268800338 0 0 0 
	 101 11 1 -4.877675876192075 7.480247136982504 -2.0331722562615875 0 0 0 
	 102 11 2 -5.751299337721787 7.758424234006054 -2.3177764553809874 0 0 0 
	 103 11 2 -6.6249227992514985 8.036601331029605 -2.602380654500388 0 0 0 
	 105 11 2 -4.420696895766527 6.778569549082394 -2.50266003468389 0 0 0 
	 106 11 2 -3.963717915340978 6.076891961182284 -2.9721478131061927 0 0 0 
	 108 11 2 -4.461031395087912 7.9037476278590635 -1.279080278719885 0 0 0 
	 109 11 2 -4.044386913983749 8.327248118735623 -0.5249883011781824 0 0 0 
	 104 11 3 -7.13453648514383 8.198871304293341 -2.768399770653371 0 0 0 
	 107 11 3 -3.697146843426075 5.667580034907219 -3.246015683852536 0 0 0 
	 110 11 3 -3.8013443000063214 8.574290071746951 -0.0851013142788557 0 0 0 
	 111 12 1 -6.845314791749742 4.34357816010424 13.409400136704981 0 0 0 
	 112 12 2 -6.286759287929925 5.113831243383955 13.537173126224214 0 0 0 
	 113 12 2 -5.728203784110108 5.884084326663671 13.664946115743449 0 0 0 
	 115 12 2 -7.799657049642853 4.442662598964775 13.377570452836412 0 0 0 
	 116 12 2 -8.753999307535963 4.54174703782531 13.345740768967843 0 0 0 
	 118 12 2 -6.449528037676449 3.47424063796399 13.313456831054316 0 0 0 
	 119 12 2 -6.0537412836031566 2.60490311582374 13.217513525403652 0 0 0 
	 114 12 4 -5.402379740215215 6.333398625243505 13.739480359629669 0 0 0 
	 117 12 4 -9.31069895797361 4.599546293827288 13.327173453377846 0 0 0 
	 120 12 4 -5.822865677060403 2.0977895612419273 13.16154659710743 0 0 0 
	 121 13 1 -7.904524269503982 -5.882519749899514 -5.522963018260986 0 0 0 
	 122 13 2 -7.133516097933819 -6.267472908179894 -5.099929372670007 0 0 0 
	 123 13 2 -6.362507926363655 -6.652426066460273 -4.676895727079028 0 0 0 
	 125 13 2 -8.539819579191457 -5.385674287818829 -5.00224768691484 0 0 0 
	 126 13 2 -9.17511488887893 -4.888828825738145 -4.481532355568695 0 0 0 
	 128 13 2 -8.040237131386672 -5.99441205369982 -6.466711995198112 0 0 0 
	 129 13 2 -8.175949993269361 -6.106304357500125 -7.410460972135236 0 0 0 
	 124 13 3 -5.912753159614393 -6.8769820754571604 -4.43012610048429 0 0 0 
	 127 13 3 -9.545703819529958 -4.599002306191078 -4.177781745616777 0 0 0 
	 130 13 3 -8.255115829367597 -6.171574868050303 -7.960981208681892 0 0 0 
	 131 14 1 -3.644824695329978 9.134687154457486 -10.363787580441759 0 0 0 
	 132 14 2 -2.68509570318814 9.118020937681141 -10.34821520551761 0 0 0 
	 133 14 2 -1.7253667110463038 9.10135472090479 -10.332642830593455 0 0 0 
	 135 14 2 -4.1064985986182165 9.923548259832568 -10.657309919368473 0 0 0 
	 136 14 2 -4.568172501906456 10.71240936520765 -10.950832258295184 0 0 0 
	 138 14 2 -4.142879784183576 8.362492265858755 -10.085837616439202 0 0 0 
	 139 14 2 -4.640934873037173 7.590297377260021 -9.807887652436639 0 0 0 
	 134 14 4 -1.165524798963566 9.09163276111859 -10.323558945221032 0 0 0 
	 137 14 4 -4.837482278824593 11.172578343343114 -11.122053622669101 0 0 0 
	 140 14 4 -4.931467008201773 7.13985035891076 -9.645750173435147 0 0 0 
	 141 15 1 10.529334714837287 2.036701289268792 6.146229573048075 0 0 0 
	 142 15 2 10.031878085935746 2.6542968289237168 6.687258825270408 0 0 0 
	 143 15 2 9.534421457034208 3.271892368578642 7.228288077492743 0 0 0 
	 145 15 2 10.350282306935627 1.9705524018024536 5.205397728395916 0 0 0 
	 146 15 2 10.17122989903397 1.9044035143361153 4.2645658837437574 0 0 0 
	 148 15 2 11.205843751640485 1.485254637080205 6.546032165477899 0 0 0 
	 149 15 2 11.882352788443685 0.9338079848916183 6.945834757907724 0 0 0 
	 144 15 3 9.244238423508309 3.6321564333773484 7.543888474622437 0 0 0 
	 147 15 3 10.066782661091334 1.8658166633140847 3.715747307696665 0 0 0 
	 150 15 3 12.276983059912217 0.6121307711149431 7.179052936825121 0 0 0 
	 151 16 1 -0.7233016843531292 -1.0385895449449345 -13.238879632948954 0 0 0 
	 152 16 2 -0.6486751295876207 -1.7254424285529308 -13.905410947744599 0 0 0 
	 153 16 2 -0.5740485748221121 -2.412295312160927 -14.571942262540244 0 0 0 
	 155 16 2 -0.009023368225505868 -0.4089896826631212 -13.11636228509728 0 0 0 
	 156 16 2 0.7052549479021175 0.22061017961869211 -12.993844937245605 0 0 0 
	 158 16 2 -1.512206555246261 -0.9813365236187513 -12.694865666004985 0 0 0 
	 159 16 2 -2.301111426139393 -0.9240835022925682 -12.150851699061015 0 0 0 
	 154 16 4 -0.5305164178755655 -2.8129594942655918 -14.960752196171036 0 0 0 
	 157 16 4 1.1219172989765644 0.5878767659497499 -12.922376484332128 0 0 0 
	 160 16 4 -2.7613059341603856 -0.8906859065189616 -11.833510218343699 0 0 0 
	 161 17 1 -0.39438169816735313 4.764550703993305 2.1822675236536826 0 0 0 
	 162 17 2 -0.6334633866311226 5.406491641257796 1.5096965018981354 0 0 0 
	 163 17 2 -0.872545075094892 6.048432578522286 0.8371254801425883 0 0 0 
	 165 17 2 -0.5001016411115904 4.980984545895302 3.1115574061679654 0 0 0 
	 166 17 2 -0.6058215840558276 5.197418387797297 4.040847288682247 0 0 0 
	 168 17 2 -0.049580066759346564 3.906175924826819 1.9255486628949476 0 0 0 
	 169 17 2 0.29522156464866 3.0478011456603324 1.6688298021362127 0 0 0 
	 164 17 3 -1.0120093933654242 6.4228981252599056 0.4447923841185193 0 0 0 
	 167 17 3 -0.6674915507732992 5.323671462240128 4.582933053482245 0 0 0 
	 170 17 3 0.4963558496366641 2.5470825244798823 1.5190771333602837 0 0 0 
	 171 18 1 -1.8741985293718988 -0.9868992022011769 -2.3165553527347504 0 0 0 
	 172 18 2 -1.9066906207157095 -0.7041494533319893 -1.3997146667295335 0 0 0 
	 173 18 2 -1.9391827120595204 -0.4213997044628017 -0.48287398072431653 0 0 0 
	 175 18 2 -2.6887308379221357 -1.1506021435360088 -2.7975319273474293 0 0 0 
	 176 18 2 -3.503263146472373 -1.3143050848708406 -3.2785085019601086 0 0 0 
	 178 18 2 -1.0271741294778516 -1.1059460097355327 -2.7524194641272883 0 0 0 
	 179 18 2 -0.18014972958380415 -1.2249928172698883 -3.188283575519826 0 0 0 
	 174 18 4 -1.9581364320100767 -0.25646235095577563 0.05194975277872693 0 0 0 
	 177 18 4 -3.9784069931266774 -1.4097984673161594 -3.559078170484171 0 0 0 
	 180 18 4 0.31394783702105733 -1.2944367883315957 -3.442537640498807 0 0 0 
	 181 19 1 -11.534477297218334 10.997544360431386 13.54823393213849 0 0 0 
	 182 19 2 -12.101452957287488 11.516677001375536 12.973220974027544 0 0 0 
	 183 19 2 -12.668428617356641 12.035809642319684 12.3982080159166 0 0 0 
	 185 19 2 -10.657110111058621 11.316323095176603 13.77230298159518 0 0 0 
	 186 19 2 -9.779742924898907 11.635101829921819 13.996372031051871 0 0 0 
	 188 19 2 -11.844868823308893 10.15963298474202 13.899177840792746 0 0 0 
	 189 19 2 -12.155260349399454 9.321721609052652 14.250121749447 0 0 0 
	 184 19 3 -12.999164419063648 12.338637016203773 12.062783790351881 0 0 0 
	 187 19 3 -9.267945399639075 11.82105609185653 14.127078976568274 0 0 0 
	 190 19 3 -12.33632207295228 8.832939973233856 14.454839029495316 0 0 0 
	 191 20 1 -13.282684914988867 -13.329274671029008 -3.838678384109604 0 0 0 
	 192 20 2 -13.043736574159238 -13.82758391470258 -4.623657102346118 0 0 0 
	 193 20 2 -12.804788233329608 -14.32589315837615 -5.408635820582632 0 0 0 
	 195 20 2 -13.144704533481978 -12.379602756280297 -3.812512210206455 0 0 0 
	 196 20 2 -13.006724151975087 -11.429930841531586 -3.786346036303306 0 0 0 
	 198 20 2 -13.659613637325386 -13.780637342104148 -3.0798658397762386 0 0 0 
	 199 20 2 -14.036542359661903 -14.232000013179286 -2.3210532954428733 0 0 0 
	 194 20 4 -12.665401701178993 -14.616573550519067 -5.8665400728872665 0 0 0 
	 197 20 4 -12.926235596096069 -10.87595555792817 -3.7710824348598027 0 0 0 
	 200 20 4 -14.256417447691538 -14.495294904639785 -1.8784126445817437 0 0 0 
	 201 21 1 5.5355292108431255 -9.801529697649224 4.3161748977115515 0 0 0 
	 202 21 2 6.039415292205744 -10.08567059579982 5.082309851232927 0 0 0 
	 203 21 2 6.54330137356836 -10.369811493950415 5.848444804754301 0 0 0 
	 205 21 2 4.915384708534617 -9.072737514067178 4.392873981188757 0 0 0 
	 206 21 2 4.295240206226106 -8.343945330485132 4.469573064665962 0 0 0 
	 208 21 2 5.651787631789022 -10.246180983080677 3.4733408607129688 0 0 0 
	 209 21 2 5.768046052734913 -10.690832268512127 2.6305068237143896 0 0 0 
	 204 21 3 6.837234921029886 -10.535560351204927 6.2953568609751045 0 0 0 
	 207 21 3 3.9334892465461424 -7.91881655672894 4.5143141966943325 0 0 0 
	 210 21 3 5.835863464953353 -10.950212185013807 2.138853635465218 0 0 0 
	 211 22 1 -8.605443009831117 4.824861158082778 -2.5154029286560773 0 0 0 
	 212 22 2 -7.913827254144537 4.769176780457238 -3.1788536778263055 0 0 0 
	 213 22 2 -7.222211498457957 4.713492402831697 -3.8423044269965336 0 0 0 
	 215 22 2 -8.909656213192083 5.682630077423637 -2.209974036909284 0 0 0 
	 216 22 2 -9.21386941655305 6.540398996764496 -1.9045451451624924 0 0 0 
	 218 22 2 -8.992845562156731 4.0227766163674605 -2.1573810712326416 0 0 0 
	 219 22 2 -9.380248114482345 3.220692074652141 -1.799359213809205 0 0 0 
	 214 22 4 -6.818768974307453 4.6810098492168 -4.2293173640125 0 0 0 
	 217 22 4 -9.391327118513614 7.04076419971333 -1.7263782916435293 0 0 0 
	 220 22 4 -9.606232936672285 2.752809425318204 -1.5905131303122013 0 0 0 
	 221 23 1 7.179142420952717 2.1957070142359414 10.990254488662572 0 0 0 
	 222 23 2 7.306195133520325 1.8328649423102648 11.86991535460461 0 0 0 
	 223 23 2 7.433247846087933 1.4700228703845883 12.749576220546647 0 0 0 
	 225 23 2 7.844332079364857 2.0553520084938732 10.312446853190174 0 0 0 
	 226 23 2 8.509521737776998 1.9149970027518048 9.634639217717774 0 0 0 
	 228 23 2 6.386900049972969 2.698904091903686 10.788401258192934 0 0 0 
	 229 23 2 5.594657678993221 3.2021011695714305 10.586548027723294 0 0 0 
	 224 23 3 7.507361928419037 1.2583649950946103 13.262711725679502 0 0 0 
	 227 23 3 8.897549038517411 1.8331232494022651 9.239251430358875 0 0 0 
	 230 23 3 5.132516295921702 3.4956327982109485 10.468800309949339 0 0 0 
	 231 24 1 -12.27646667307061 -3.074016163370703 6.090920301206677 0 0 0 
	 232 24 2 -12.18426782816508 -2.143194682157646 6.30695442608147 0 0 0 
	 233 24 2 -12.09206898325955 -1.2123732009445898 6.522988550956262 0 0 0 
	 235 24 2 -13.147390354367625 -3.477121613509022 6.066467542163175 0 0 0 
	 236 24 2 -14.01831403566464 -3.8802270636473413 6.042014783119672 0 0 0 
	 238 24 2 -11.497741836679126 -3.6017321944454403 5.899338935375387 0 0 0 
	 239 24 2 -10.719017000287641 -4.1294482255201785 5.707757569544097 0 0 0 
	 234 24 4 -12.038286323731324 -0.6693940035703068 6.649008457133224 0 0 0 
	 237 24 4 -14.526352849754563 -4.115371909561361 6.027750673677629 0 0 0 
	 240 24 4 -10.264760845725942 -4.437282576980442 5.596001772809178 0 0 0 
	 241 25 1 10.295257856776667 8.949737720958435 5.308340758649546 0 0 0 
	 242 25 2 10.345793514597064 8.025910073159238 5.052237997144595 0 0 0 
	 243 25 2 10.396329172417463 7.10208242536004 4.796135235639644 0 0 0 
	 245 25 2 10.273584049369504 9.189736755444187 6.237604289365341 0 0 0 
	 246 25 2 10.251910241962339 9.429735789929937 7.166867820081135 0 0 0 
	 248 25 2 10.266396006363433 9.633566334271881 4.635179989438703 0 0 0 
	 249 25 2 10.237534155950199 10.317394947585326 3.96201922022786 0 0 0 
	 244 25 3 10.425808306146028 6.5631829641438415 4.646741958095089 0 0 0 
	 247 25 3 10.239267187641493 9.569735226713293 7.708938212998682 0 0 0 
	 250 25 3 10.22069807654248 10.71629497201817 3.569342104854868 0 0 0 
	 251 26 1 -6.971612181337228 -2.6723120614747997 -11.141820375163844 0 0 0 
	 252 26 2 -6.353029457123592 -3.402778156579644 -11.21513270159479 0 0 0 
	 253 26 2 -5.734446732909956 -4.133244251684488 -11.288445028025734 0 0 0 
	 255 26 2 -6.712671315809432 -1.8679206334235423 -10.686294241295133 0 0 0 
	 256 26 2 -6.453730450281637 -1.063529205372285 -10.230768107426423 0 0 0 
	 258 26 2 -7.84913577107866 -2.746237394421213 -11.52403418260161 0 0 0 
	 259 26 2 -8.726659360820092 -2.8201627273676255 -11.906247990039375 0 0 0 
	 254 26 4 -5.373606810452001 -4.559349473828981 -11.331210551777119 0 0 0 
	 257 26 4 -6.302681612057089 -0.594300872342385 -9.96504452933634 0 0 0 
	 260 26 4 -9.238548121502593 -2.8632858382530335 -12.129206044378073 0 0 0 
	 261 27 1 3.8390591585887677 -6.910777886325396 7.264105161295191 0 0 0 
	 262 27 2 3.138932228825175 -6.641989994630419 6.664792762376251 0 0 0 
	 263 27 2 2.438805299061582 -6.3732021029354415 6.065480363457312 0 0 0 
	 265 27 2 3.7496359984880336 -6.755270050411096 8.20719625520227 0 0 0 
	 266 27 2 3.6602128383872996 -6.599762214496797 9.150287349109348 0 0 0 
	 268 27 2 4.6286092484530945 -7.335073613934672 6.920326466307053 0 0 0 
	 269 27 2 5.418159338317421 -7.759369341543948 6.576547771318914 0 0 0 
	 264 27 3 2.0303979233661527 -6.216409166113371 5.715881464087931 0 0 0 
	 267 27 3 3.608049328328538 -6.509049310213456 9.700423820555143 0 0 0 
	 270 27 3 5.878730224071612 -8.00687518264936 6.376010199242501 0 0 0 
	 271 28 1 2.4136530996052774 11.085928419873948 -8.925188600558007 0 0 0 
	 272 28 2 3.190405177891688 10.84263107730532 -8.416206663769692 0 0 0 
	 273 28 2 3.9671572561780994 10.599333734736692 -7.907224726981377 0 0 0 
	 275 28 2 2.3506514697550474 10.841241388567175 -9.851341423447671 0 0 0 
	 276 28 2 2.2876498399048173 10.596554357260402 -10.777494246337335 0 0 0 
	 278 28 2 1.6999026511690964 11.573912793749349 -8.50801771445666 0 0 0 
	 279 28 2 0.9861522027329155 12.061897167624748 -8.09084682835531 0 0 0 
	 274 28 4 4.420262635178506 10.457410284904993 -7.610318597188193 0 0 0 
	 277 28 4 2.25089888915885 10.453820255664786 -11.317750059689638 0 0 0 
	 280 28 4 0.5697977744784766 12.346554719052065 -7.847497144796192 0 0 0 
	 281 29 1 1.7981618093948581 -2.0584018130749957 -7.386296560078923 0 0 0 
	 282 29 2 2.608934701718243 -2.5723436980404193 -7.375758251307581 0 0 0 
	 283 29 2 3.419707594041628 -3.0862855830058424 -7.365219942536239 0 0 0 
	 285 29 2 1.7416685969833223 -1.240676698347713 -6.886562477095105 0 0 0 
	 286 29 2 1.6851753845717867 -0.4229515836204305 -6.386828394111287 0 0 0 
	 288 29 2 1.0438821294830087 -2.3621850428368543 -7.896568951834084 0 0 0 
	 289 29 2 0.28960244957115955 -2.6659682725987133 -8.406841343589244 0 0 0 
	 284 29 3 3.8926584478969364 -3.3860850159023395 -7.359072595752956 0 0 0 
	 287 29 3 1.6522210106650577 0.05405473330381749 -6.09531684570406 0 0 0 
	 290 29 3 -0.15039403037741872 -2.8431751566264643 -8.704500238779755 0 0 0 
	 291 30 1 10.678509358015159 -4.307744783361742 4.146887687658213 0 0 0 
	 292 30 2 10.49134182311595 -3.55328305826394 3.583544258441006 0 0 0 
	 293 30 2 10.304174288216743 -2.798821333166137 3.0202008292238003 0 0 0 
	 295 30 2 10.832075949586233 -5.171489251207622 3.757063629628336 0 0 0 
	 296 30 2 10.985642541157308 -6.035233719053502 3.3672395715984598 0 0 0 
	 298 30 2 10.712110301343293 -4.1984620406136655 5.100055174905295 0 0 0 
	 299 30 2 10.745711244671424 -4.089179297865589 6.053222662152377 0 0 0 
	 294 30 4 10.194993226192205 -2.3587186601924186 2.6915838288470963 0 0 0 
	 297 30 4 11.075223052907102 -6.539084658630265 3.1398422044143652 0 0 0 
	 300 30 4 10.76531179494617 -4.025431031262543 6.609237029713175 0 0 0 
	 301 31 1 -11.991011573586148 3.6327460200292783 -12.213104609652195 0 0 0 
	 302 31 2 -12.66793964375756 3.3590334664009314 -11.589847178248238 0 0 0 
	 303 31 2 -13.344867713928972 3.085320912772584 -10.966589746844283 0 0 0 
	 305 31 2 -11.06322534592058 3.5145578192151405 -11.996669249919982 0 0 0 
	 306 31 2 -10.135439118255013 3.396369618401003 -11.78023389018777 0 0 0 
	 308 31 2 -12.241869731080303 4.024646774471763 -13.052797400788362 0 0 0 
	 309 31 2 -12.492727888574459 4.416547528914247 -13.892490191924532 0 0 0 
	 304 31 3 -13.739742421528963 2.9256552564893816 -10.603022911858641 0 0 0 
	 307 31 3 -9.594230485450097 3.3274265012594224 -11.65397993034398 0 0 0 
	 310 31 3 -12.639061813779382 4.64515630233903 -14.382310986753964 0 0 0 
	 311 32 1 -2.1813200647326534 0.8212007397527166 3.111570700169196 0 0 0 
	 312 32 2 -2.4456757032931535 0.3492998336986415 3.9046820613453 0 0 0 
	 313 32 2 -2.7100313418536537 -0.1226010723554336 4.697793422521404 0 0 0 
	 315 32 2 -2.8196434296457373 1.3598818360711276 2.6383202820233347 0 0 0 
	 316 32 2 -3.4579667945588213 1.8985629323895385 2.165069863877474 0 0 0 
	 318 32 2 -1.2786410612590697 0.7544205494883808 2.7917097571389524 0 0 0 
	 319 32 2 -0.3759620577854861 0.687640359224045 2.471848814108709 0 0 0 
	 314 32 4 -2.8642387976806116 -0.3978766008869772 5.160441716540799 0 0 0 
	 317 32 4 -3.83032209075812 2.2127935719086116 1.889007119959055 0 0 0 
	 320 32 4 0.15060069424077094 0.6486852482365156 2.285263264007734 0 0 0 
	 321 33 1 -0.5283321070774671 1.5973406501515541 12.680056444460668 0 0 0 
	 322 33 2 -0.4558749897399468 2.433643260912776 13.14583311775067 0 0 0 
	 323 33 2 -0.3834178724024264 3.2699458716739973 13.611609791040673 0 0 0 
	 325 33 2 -0.24034183693860306 1.5300580940601776 11.76674671498706 0 0 0 
	 326 33 2 0.04764843320026102 1.4627755379688008 10.853436985513452 0 0 0 
	 328 33 2 -0.8887794945538514 0.8283205954817092 13.127589500644273 0 0 0 
	 329 33 2 -1.2492268820302357 0.05930054081186431 13.575122556827878 0 0 0 
	 324 33 3 -0.34115122062220615 3.7577890612847096 13.883312850459841 0 0 0 
	 327 33 3 0.21564275744793182 1.423527380248831 10.320672976653848 0 0 0 
	 330 33 3 -1.4594878580581265 -0.3892944910788785 13.836183506268315 0 0 0 
	 331 34 1 5.1808177610237225 -0.7975650616641017 0.4026526556805754 0 0 0 
	 332 34 2 4.9857234600274625 -0.25266832897929514 1.1685676407985082 0 0 0 
	 333 34 2 4.7906291590312025 0.2922284037055114 1.934482625916441 0 0 0 
	 335 34 2 5.835237071069614 -1.4971341761392898 0.4654094936463326 0 0 0 
	 336 34 2 6.4896563811155055 -2.1967032906144777 0.5281663316120898 0 0 0 
	 338 34 2 4.721492751974091 -0.6428926798737205 -0.42601916740311463 0 0 0 
	 339 34 2 4.2621677429244595 -0.4882202980833391 -1.2546909904868047 0 0 0 
	 334 34 4 4.676824150116718 0.610084831104982 2.381266367235235 0 0 0 
	 337 34 4 6.871400978642276 -2.6047852740583375 0.5647744870921151 0 0 0 
	 340 34 4 3.9942281543121743 -0.39799474203895 -1.7380828872856235 0 0 0 
	 341 35 1 4.9552370427796655 7.5336673679283095 -12.247163129267827 0 0 0 
	 342 35 2 5.817436132432875 7.912443244863927 -12.433554021890913 0 0 0 
	 343 35 2 6.679635222086085 8.291219121799545 -12.619944914513997 0 0 0 
	 345 35 2 4.763824086282229 7.182227125209103 -11.374551625858448 0 0 0 
	 346 35 2 4.572411129784792 6.830786882489896 -10.50194012244907 0 0 0 
	 348 35 2 4.284450909623892 7.506331733711899 -12.93338374005412 0 0 0 
	 349 35 2 3.61366477646812 7.478996099495488 -13.619604350840412 0 0 0 
	 344 35 3 7.182584691050456 8.512171716678655 -12.728672935210797 0 0 0 
	 347 35 3 4.460753571827954 6.625780074237026 -9.992916745460267 0 0 0 
	 350 35 3 3.222372865460586 7.463050312869248 -14.019899707132415 0 0 0 
	 351 36 1 -1.8494698349285459 3.8067400371732303 -11.612618902124211 0 0 0 
	 352 36 2 -2.002300359253714 4.738447847909443 -11.786294997910668 0 0 0 
	 353 36 2 -2.1551308835788867 5.6701556586456565 -11.959971093697128 0 0 0 
	 355 36 2 -1.0977718270404901 3.36133406871747 -12.010316812856864 0 0 0 
	 356 36 2 -0.34607381915243396 2.9159281002617097 -12.408014723589513 0 0 0 
	 358 36 2 -2.4483373184914288 3.3204381948927786 -11.041244895605104 0 0 0 
	 359 36 2 -3.0472048020543134 2.834136352612327 -10.469870889085998 0 0 0 
	 354 36 4 -2.24428202276857 6.213651881575112 -12.061282149572559 0 0 0 
	 357 36 4 0.09241668544893189 2.6561079519958484 -12.64000517151689 0 0 0 
	 360 36 4 -3.3965441674659957 2.550460277948729 -10.136569385283185 0 0 0 
	 361 37 1 1.920226152628322 5.665069882602284 -9.714325168025201 0 0 0 
	 362 37 2 2.565106998261986 6.314964254666933 -9.425593458485867 0 0 0 
	 363 37 2 3.2099878438956497 6.96485862673158 -9.136861748946533 0 0 0 
	 365 37 2 0.9848645449857589 5.815063843652563 -9.558760150759856 0 0 0 
	 366 37 2 0.049502937343195885 5.965057804702841 -9.40319513349451 0 0 0 
	 368 37 2 2.210706914637221 4.865181549487358 -10.158621894829881 0 0 0 
	 369 37 2 2.5011876766461194 4.065293216372431 -10.602918621634561 0 0 0 
	 364 37 3 3.5861683371819537 7.343963677102627 -8.96843491838192 0 0 0 
	 367 37 3 -0.49612466711496483 6.052554281982168 -9.312448873423056 0 0 0 
	 370 37 3 2.6706347878179777 3.598691688722056 -10.862091712270626 0 0 0 
	 371 38 1 -5.30803408613469 5.381198351894793 -11.490225707578123 0 0 0 
	 372 38 2 -4.494763343262905 5.869543952580321 -11.637566377726806 0 0 0 
	 373 38 2 -3.681492600391117 6.357889553265852 -11.784907047875494 0 0 0 
	 375 38 2 -6.068144641932853 5.820607080440967 -11.10195787187493 0 0 0 
	 376 38 2 -6.828255197731016 6.260015808987138 -10.713690036171734 0 0 0 
	 378 38 2 -5.361194273208315 4.453444022663089 -11.73115287313264 0 0 0 
	 379 38 2 -5.41435446028194 3.525689693431386 -11.97208003868715 0 0 0 
	 374 38 4 -3.207084667049244 6.642757820332406 -11.870855772128895 0 0 0 
	 377 38 4 -7.271653021946609 6.516337567305737 -10.487200465344866 0 0 0 
	 380 38 4 -5.445364569408223 2.984499668046226 -12.112620885260617 0 0 0 
	 381 39 1 2.416253188573567 -8.055174627226515 3.4670603431188693 0 0 0 
	 382 39 2 2.4132201908112214 -8.273702548489336 4.401852485016267 0 0 0 
	 383 39 2 2.4101871930488756 -8.492230469752156 5.336644626913664 0 0 0 
	 385 39 2 1.7301752424358843 -7.4903427997312795 3.103932186028441 0 0 0 
	 386 39 2 1.0440972962982016 -6.925510972236044 2.7408040289380122 0 0 0 
	 388 39 2 3.1053641324735954 -8.401478533458931 2.8953963583119005 0 0 0 
	 389 39 2 3.7944750763736232 -8.747782439691346 2.3237323735049316 0 0 0 
	 384 39 3 2.408417944354174 -8.6197050904888 5.88194004302048 0 0 0 
	 387 39 3 0.6438851610512204 -6.596025739530489 2.5289792706352623 0 0 0 
	 390 39 3 4.196456460315306 -8.949793051660254 1.9902617157008662 0 0 0 
	 391 40 1 12.384823236052508 7.427832955060204 1.644350490855524 0 0 0 
	 392 40 2 12.97501068575836 7.75043064320855 2.329339181135185 0 0 0 
	 393 40 2 13.565198135464211 8.073028331356896 3.014327871414846 0 0 0 
	 395 40 2 12.040864252075806 8.032817737418503 0.9830747310876368 0 0 0 
	 396 40 2 11.696905268099107 8.637802519776804 0.32179897131974955 0 0 0 
	 398 40 2 12.138594770323357 6.5002504845535585 1.62063756034375 0 0 0 
	 399 40 2 11.892366304594207 5.572668014046913 1.5969246298319761 0 0 0 