LAMMPS FENE chain data file 

1000  atoms          
900  bonds          
900  angles         
0  dihedrals      
0  impropers    

4  atom types     
2  bond types     
2  angle types    
0  dihedral types 
0  improper types 

-9.500000 9.500000 xlo xhi  
-9.500000 9.500000 ylo yhi  
-9.500000 9.500000 zlo zhi  

Masses

	 1 1.0 
	 2 1.0 
	 3 1.0 
	 4 1.0 

Atoms 

	 1 1 1 5.621491480427042 6.171471543869691 4.620480124674932 0 0 0 
	 2 1 2 4.684506983278153 6.351766383776259 4.726091785043039 0 0 0 
	 3 1 2 3.747522486129263 6.5320612236828275 4.831703445411145 0 0 0 
	 5 1 2 6.2690745752479415 6.834454969935292 4.87085806312899 0 0 0 
	 6 1 2 6.916657670068841 7.497438396000893 5.121236001583048 0 0 0 
	 8 1 2 5.910892882755031 5.3281932778975225 4.264490525852768 0 0 0 
	 9 1 2 6.200294285083022 4.484915011925354 3.9085009270306044 0 0 0 
	 4 1 3 3.2009481961257444 6.637233213628326 4.89331024729254 0 0 0 
	 7 1 3 7.294414475381032 7.884178727872493 5.2672897990145815 0 0 0 
	 10 1 3 6.369111769774349 3.9930026901082556 3.7008403277176756 0 0 0 
	 11 2 1 2.5880415514477018 6.268763368419158 7.036445966239579 0 0 0 
	 12 2 2 3.0063180571728463 5.941406894166819 7.836122465533788 0 0 0 
	 13 2 2 3.424594562897991 5.614050419914481 8.635798964827996 0 0 0 
	 15 2 2 2.1279438690204104 5.661563912487173 6.452306476613225 0 0 0 
	 16 2 2 1.667846186593119 5.054364456555188 5.868166986986872 0 0 0 
	 18 2 2 2.6298627281498486 7.203319298603482 6.8209089565717225 0 0 0 
	 19 2 2 2.6716839048519954 8.137875228787806 6.605371946903866 0 0 0 
	 14 2 4 3.6685891912376585 5.423092476600617 9.102276922749619 0 0 0 
	 17 2 4 1.3994558718438659 4.700164773928196 5.5274189513715 0 0 0 
	 20 2 4 2.696079591261581 8.68303285472866 6.479642024597617 0 0 0 
	 21 3 1 -7.445164333187272 1.511879844276757 -1.5760760922314954 0 0 0 
	 22 3 2 -6.896144506531632 1.6738191157466764 -0.8053926927120797 0 0 0 
	 23 3 2 -6.347124679875993 1.835758387216596 -0.034709293192664026 0 0 0 
	 25 3 2 -8.0099139573813 2.2087823319056428 -1.9181064778836676 0 0 0 
	 26 3 2 -8.57466358157533 2.9056848195345286 -2.2601368635358403 0 0 0 
	 28 3 2 -7.429434535648882 0.6530380851779518 -2.004729106098739 0 0 0 
	 29 3 2 -7.413704738110494 -0.2058036739208533 -2.433382119965982 0 0 0 
	 24 3 3 -6.02686311432687 1.9302229622407159 0.41485602319366155 0 0 0 
	 27 3 3 -8.904100862355179 3.3122112706513787 -2.4596545884996073 0 0 0 
	 30 3 3 -7.404529022879767 -0.7067947000618227 -2.6834297113885404 0 0 0 
	 31 4 1 4.9729901493263 3.841524837589998 -4.429245679454024 0 0 0 
	 32 4 2 4.8885196406232705 4.496331560809179 -3.7323289782720175 0 0 0 
	 33 4 2 4.80404913192024 5.151138284028361 -3.0354122770900114 0 0 0 
	 35 4 2 5.504469411029835 4.032580342237748 -5.205536596908852 0 0 0 
	 36 4 2 6.035948672733371 4.223635846885498 -5.98182751436368 0 0 0 
	 38 4 2 4.525981396325795 2.9956626097230665 -4.349871463181202 0 0 0 
	 39 4 2 4.07897264332529 2.149800381856135 -4.270497246908381 0 0 0 
	 34 4 4 4.754774668510139 5.533108872572884 -2.6288775347338413 0 0 0 
	 37 4 4 6.345978242060433 4.335084891263352 -6.434663882878996 0 0 0 
	 40 4 4 3.8182175374083287 1.656380748933758 -4.224195620749234 0 0 0 
	 41 5 1 -3.228538099427424 4.46514864200234 1.0302059239007222 0 0 0 
	 42 5 2 -3.879650277380455 4.703377169989992 0.3662028364274055 0 0 0 
	 43 5 2 -4.530762455333486 4.941605697977643 -0.29780025104591124 0 0 0 
	 45 5 2 -3.1612964062335593 3.556368098540303 1.3321934708646086 0 0 0 
	 46 5 2 -3.0940547130396947 2.6475875550782653 1.634181017828495 0 0 0 
	 48 5 2 -2.6446676146682577 5.135700657476725 1.3922214644101527 0 0 0 
	 49 5 2 -2.0607971299090915 5.8062526729511115 1.754237004919583 0 0 0 
	 44 5 3 -4.9105778924727534 5.080572339303773 -0.6851353854053464 0 0 0 
	 47 5 3 -3.0548303920099404 2.117465571392077 1.8103404202240956 0 0 0 
	 50 5 3 -1.720206013799578 6.19740801531117 1.965412736883417 0 0 0 
	 51 6 1 -3.795935340481474 0.4041923701171355 4.786136652993761 0 0 0 
	 52 6 2 -4.10666469745251 1.2680542595418525 4.505441261660159 0 0 0 
	 53 6 2 -4.417394054423547 2.1319161489665692 4.224745870326556 0 0 0 
	 55 6 2 -3.9864505068802947 0.09048160660741639 5.673204591897078 0 0 0 
	 56 6 2 -4.176965673279115 -0.22322915690230272 6.560272530800395 0 0 0 
	 58 6 2 -3.2946908171116176 -0.14595875579786244 4.179764105424047 0 0 0 
	 59 6 2 -2.793446293741761 -0.6961098817128604 3.573391557854333 0 0 0 
	 54 6 4 -4.598652845989984 2.6358355844643206 4.0610068920486215 0 0 0 
	 57 6 4 -4.288099520345093 -0.4062271022829722 7.0777288284939965 0 0 0 
	 60 6 4 -2.501053655109345 -1.0170313718299424 3.2196742384386665 0 0 0 
	 61 7 1 6.601094982554706 -1.0665640777389185 5.715779011887281 0 0 0 
	 62 7 2 6.482190721152401 -0.12835097718084143 5.550800363082136 0 0 0 
	 63 7 2 6.363286459750096 0.8098621233772356 5.3858217142769895 0 0 0 
	 65 7 2 6.6673511148037665 -1.6788136891783378 4.9793276976568865 0 0 0 
	 66 7 2 6.733607247052828 -2.2910633006177576 4.242876383426493 0 0 0 
	 68 7 2 6.65374311170795 -1.3925275668575763 6.61720897492282 0 0 0 
	 69 7 2 6.706391240861193 -1.718491055976234 7.518638937958359 0 0 0 
	 64 7 3 6.293925640598752 1.357153098702781 5.289584169140655 0 0 0 
	 67 7 3 6.772256657531447 -2.648208907290752 3.8132797834587633 0 0 0 
	 70 7 3 6.737102649533919 -1.9086364246287841 8.044473083062424 0 0 0 
	 71 8 1 0.8237005982015839 8.531749979443177 5.146321803328109 0 0 0 
	 72 8 2 0.9866112499557234 8.68477804042796 6.079939783069437 0 0 0 
	 73 8 2 1.1495219017098628 8.837806101412742 7.013557762810766 0 0 0 
	 75 8 2 1.484938423536422 8.78099855023623 4.49652207394676 0 0 0 
	 76 8 2 2.14617624887126 9.030247121029284 3.8467223445654106 0 0 0 
	 78 8 2 -0.0004478788873930606 8.129473347665341 4.86250355296813 0 0 0 
	 79 8 2 -0.82459635597637 7.727196715887507 4.578685302608151 0 0 0 
	 74 8 4 1.2445531152331106 8.927072470320532 7.558168250993208 0 0 0 
	 77 8 4 2.5318983136499154 9.175642120658564 3.46767250242629 0 0 0 
	 80 8 4 -1.3053496342782736 7.492535347350436 4.41312465656483 0 0 0 
	 81 9 1 6.265921007035652 0.6643726611216947 -7.619361495164491 0 0 0 
	 82 9 2 5.936638917254035 -0.18398670709306342 -7.313649722883299 0 0 0 
	 83 9 2 5.607356827472418 -1.0323460753078215 -7.0079379506021064 0 0 0 
	 85 9 2 5.666539464841646 1.409379342157574 -7.704841388057727 0 0 0 
	 86 9 2 5.067157922647641 2.154386023193453 -7.790321280950963 0 0 0 
	 88 9 2 7.194584639011273 0.7677253483005737 -7.8395933745524475 0 0 0 
	 89 9 2 8.123248270986895 0.8710780354794528 -8.059825253940403 0 0 0 
	 84 9 3 5.4152756084331415 -1.5272223734330972 -6.829606083438078 0 0 0 
	 87 9 3 4.717518689701138 2.5889732537977164 -7.840184551805351 0 0 0 
	 90 9 3 8.664968722972674 0.9313671030004654 -8.188293850250044 0 0 0 
	 91 10 1 -0.6287824968915489 -7.0026851293886185 1.4310766070598742 0 0 0 
	 92 10 2 -0.04696857977570035 -7.765486878526722 1.3960615051442204 0 0 0 
	 93 10 2 0.5348453373401482 -8.528288627664825 1.361046403228567 0 0 0 
	 95 10 2 -1.4833026092051775 -7.070208318704415 1.8633219038025075 0 0 0 
	 96 10 2 -2.337822721518806 -7.13773150802021 2.2955672005451406 0 0 0 
	 98 10 2 -0.35607630169376914 -6.17236019093472 1.033846412232895 0 0 0 
	 99 10 2 -0.08337010649598942 -5.342035252480821 0.6366162174059158 0 0 0 
	 94 10 4 0.8742367889910599 -8.97325631466205 1.3406209271111023 0 0 0 
	 97 10 4 -2.8362927870350894 -7.177120035121091 2.5477102903116764 0 0 0 
	 100 10 4 0.07570850736938228 -4.857679038382714 0.4048986037568443 0 0 0 
	 101 11 1 -3.1335471098508103 -4.7776658786516855 -4.3855269218416035 0 0 0 
	 102 11 2 -2.490493679090722 -4.472887120346724 -3.741172831551361 0 0 0 
	 103 11 2 -1.847440248330634 -4.168108362041762 -3.0968187412611186 0 0 0 
	 105 11 2 -4.051156370052699 -4.895477214553501 -4.129180018749776 0 0 0 
	 106 11 2 -4.968765630254589 -5.013288550455317 -3.8728331156579476 0 0 0 
	 108 11 2 -2.85899128040901 -4.964633301054831 -5.286227915223674 0 0 0 
	 109 11 2 -2.5844354509672094 -5.151600723457977 -6.186928908605744 0 0 0 
	 104 11 3 -1.4723257470539155 -3.9903207530305345 -2.7209455219251435 0 0 0 
	 107 11 3 -5.504037698705691 -5.0820118297313766 -3.7232974221877146 0 0 0 
	 110 11 3 -2.4242778837928256 -5.260665053193145 -6.712337821411952 0 0 0 
	 111 12 1 4.731730429136327 -4.298579705755702 0.6607294399584488 0 0 0 
	 112 12 2 4.641524164784662 -4.951562826998817 -0.037178772662177506 0 0 0 
	 113 12 2 4.5513179004329976 -5.604545948241931 -0.7350869852828038 0 0 0 
	 115 12 2 4.125612603481192 -3.555376064551851 0.7039674917696657 0 0 0 
	 116 12 2 3.519494777826058 -2.8121724233479997 0.7472055435808826 0 0 0 
	 118 12 2 5.428054519143126 -4.388800225716438 1.315399600767858 0 0 0 
	 119 12 2 6.124378609149925 -4.479020745677174 1.970069761577267 0 0 0 
	 114 12 4 4.498697579561193 -5.9854527689670824 -1.1422001093115024 0 0 0 
	 117 12 4 3.1659260461938965 -2.3786369659790867 0.7724277404707593 0 0 0 
	 120 12 4 6.53056766165389 -4.5316493823209365 2.351960688716089 0 0 0 
	 121 13 1 0.8130340064915991 -0.1984218726427316 -2.8491121320809807 0 0 0 
	 122 13 2 1.4656926789019717 0.5011172541179274 -2.769855161040792 0 0 0 
	 123 13 2 2.1183513513123438 1.2006563808785857 -2.6905981900006033 0 0 0 
	 125 13 2 0.8020275446547696 -0.9187606080677966 -2.2146115693987616 0 0 0 
	 126 13 2 0.79102108281794 -1.6390993434928618 -1.5801110067165425 0 0 0 
	 128 13 2 0.17138179591805647 -0.17762226397832626 -3.562869665803389 0 0 0 
	 129 13 2 -0.4702704146554862 -0.15682265531392003 -4.276627199525796 0 0 0 
	 124 13 3 2.4990689102183934 1.6087208714889705 -2.644364956893827 0 0 0 
	 127 13 3 0.784600646746456 -2.059296939157483 -1.209985678485248 0 0 0 
	 130 13 3 -0.844567537490053 -0.14468955025968278 -4.692985760863867 0 0 0 
	 131 14 1 7.29983186466918 -6.609653751585457 -0.5313507804581427 0 0 0 
	 132 14 2 7.858571612024359 -5.8531673191238545 -0.33863811292694695 0 0 0 
	 133 14 2 8.417311359379537 -5.096680886662253 -0.14592544539575125 0 0 0 
	 135 14 2 7.634716874374928 -7.328206419436706 -1.072769374337438 0 0 0 
	 136 14 2 7.969601884080676 -8.046759087287954 -1.6141879682167337 0 0 0 
	 138 14 2 6.406207107608253 -6.64758751619581 -0.18264485411004322 0 0 0 
	 139 14 2 5.512582350547327 -6.685521280806164 0.16606107223805622 0 0 0 
	 134 14 4 8.743242878670058 -4.6553971343929845 -0.033509722669220476 0 0 0 
	 137 14 4 8.164951473075696 -8.465914810201184 -1.930015481312989 0 0 0 
	 140 14 4 4.991301242261787 -6.707649310162203 0.3694728626077809 0 0 0 
	 141 15 1 5.725675060064756 -2.65977400008249 -2.9420646457566546 0 0 0 
	 142 15 2 6.329230915120387 -3.3893368331906584 -2.7837661859560363 0 0 0 
	 143 15 2 6.932786770176018 -4.1188996662988275 -2.6254677261554185 0 0 0 
	 145 15 2 4.9849873967990215 -2.7712103073331287 -3.542534241083751 0 0 0 
	 146 15 2 4.244299733533286 -2.882646614583768 -4.143003836410847 0 0 0 
	 148 15 2 5.862806868274859 -1.8187748597236828 -2.4998935102301765 0 0 0 
	 149 15 2 5.999938676484962 -0.9777757193648764 -2.0577223747036983 0 0 0 
	 144 15 3 7.284861018958471 -4.544477985611925 -2.533126957938391 0 0 0 
	 147 15 3 3.8122319299616083 -2.9476511271466395 -4.493277767018318 0 0 0 
	 150 15 3 6.0799322312741895 -0.4871928874889049 -1.799789212313253 0 0 0 
	 151 16 1 6.8382161844455975 1.8741555570950785 0.23385354958903493 0 0 0 
	 152 16 2 6.049932737976178 2.105006436169211 -0.26305396660788544 0 0 0 
	 153 16 2 5.261649291506756 2.335857315243342 -0.7599614828048041 0 0 0 
	 155 16 2 7.632157100050264 1.5949695611354657 -0.22800465612876314 0 0 0 
	 156 16 2 8.42609801565493 1.315783565175853 -0.6898628618465623 0 0 0 
	 158 16 2 6.832558715310355 1.9224906739805607 1.192619271503753 0 0 0 
	 159 16 2 6.82690124617511 1.970825790866042 2.1513849934184703 0 0 0 
	 154 16 4 4.801817281066261 2.470520328036586 -1.0498242005863423 0 0 0 
	 157 16 4 8.889230216424318 1.1529250675327436 -0.9592801485152778 0 0 0 
	 160 16 4 6.823601055846217 1.9990212757159083 2.710664997868722 0 0 0 
	 161 17 1 -5.156728163286629 -1.1915077430329575 -3.7205413086819004 0 0 0 
	 162 17 2 -4.743044760925021 -2.0324880360867965 -3.928431157653907 0 0 0 
	 163 17 2 -4.329361358563413 -2.8734683291406347 -4.136321006625915 0 0 0 
	 165 17 2 -5.228672802290751 -0.5122216671934741 -4.395074032935632 0 0 0 
	 166 17 2 -5.30061744129487 0.16706440864601158 -5.069606757189362 0 0 0 
	 168 17 2 -5.498466926644116 -1.029813525818605 -2.838118735456162 0 0 0 
	 169 17 2 -5.840205690001602 -0.8681193086042496 -1.9556961622304239 0 0 0 
	 164 17 3 -4.088046040519142 -3.364040166755374 -4.257590085192918 0 0 0 
	 167 17 3 -5.342585147380608 0.5633146195523762 -5.463084179670709 0 0 0 
	 170 17 3 -6.0395533019601375 -0.7737976818958767 -1.4409496611820771 0 0 0 
	 171 18 1 0.2144617613964298 5.467799188961788 -4.218134024156283 0 0 0 
	 172 18 2 0.4983736432416487 4.820461210491047 -4.867708950532387 0 0 0 
	 173 18 2 0.7822855250868676 4.1731232320203056 -5.517283876908491 0 0 0 
	 175 18 2 0.6171306869245755 5.481875468811338 -3.346778990453255 0 0 0 
	 176 18 2 1.0197996124527213 5.495951748660887 -2.4754239567502268 0 0 0 
	 178 18 2 -0.47211904597693477 6.10106088758298 -4.439914131483207 0 0 0 
	 179 18 2 -1.1586998533502992 6.734322586204171 -4.6616942388101315 0 0 0 
	 174 18 4 0.9479007894965786 3.7955094112457064 -5.896202583961218 0 0 0 
	 177 18 4 1.2546898190108062 5.504162911906458 -1.96713352042346 0 0 0 
	 180 18 4 -1.5592053243180954 7.1037252437332 -4.791065968084171 0 0 0 
	 181 19 1 -5.405857985104857 -5.563523097482565 3.4235306036876634 0 0 0 
	 182 19 2 -5.422491561669814 -5.844318451028159 4.341396222151425 0 0 0 
	 183 19 2 -5.439125138234768 -6.125113804573753 5.259261840615186 0 0 0 
	 185 19 2 -6.107242409674081 -5.833457216705505 2.8262070228279774 0 0 0 
	 186 19 2 -6.808626834243299 -6.10339133592845 2.2288834419682937 0 0 0 
	 188 19 2 -4.687839983970684 -5.0127936247140275 3.102988566083586 0 0 0 
	 189 19 2 -3.96982198283651 -4.4620641519454916 2.7824465284795115 0 0 0 
	 184 19 3 -5.448828057897657 -6.288911094142016 5.794683451385712 0 0 0 
	 187 19 3 -7.217767748575344 -6.260852905475167 1.8804446864668114 0 0 0 
	 190 19 3 -3.550978148841575 -4.140805292830511 2.5954636732104674 0 0 0 
	 191 20 1 -0.23104513933361553 1.7194513782872796 1.0115222624483469 0 0 0 
	 192 20 2 -0.3136971917426232 0.7736255872383038 0.8694581529091769 0 0 0 
	 193 20 2 -0.39634924415163164 -0.172200203810672 0.7273940433700063 0 0 0 
	 195 20 2 0.47347658110665364 2.061706010537622 1.56659965536853 0 0 0 
	 196 20 2 1.1779983015469226 2.403960642787964 2.1216770482887126 0 0 0 
	 198 20 2 -0.8529148073648756 2.323022537085914 0.5985089790673359 0 0 0 
	 199 20 2 -1.4747844753961359 2.9265936958845478 0.18549569568632385 0 0 0 
	 194 20 4 -0.44456294139021935 -0.7239319152559079 0.6445233128054896 0 0 0 
	 197 20 4 1.5889693051370786 2.6036091782673294 2.4454721941588202 0 0 0 
	 200 20 4 -1.8375417817477049 3.2786768718504185 -0.05542871961926621 0 0 0 
	 201 21 1 -7.038842157945118 -0.9656481173073246 1.0223340512403989 0 0 0 
	 202 21 2 -7.618135699017836 -1.121907663667499 0.27293299209867056 0 0 0 
	 203 21 2 -8.197429240090552 -1.2781672100276706 -0.47646806704306033 0 0 0 
	 205 21 2 -6.228869283218669 -0.46354595992501557 0.9064143990695751 0 0 0 
	 206 21 2 -5.418896408492223 0.03855619745729366 0.7904947468987529 0 0 0 
	 208 21 2 -7.2695214915988515 -1.3114907283294617 1.8876547625529532 0 0 0 
	 209 21 2 -7.5002008252525805 -1.657333339351595 2.7529754738655035 0 0 0 
	 204 21 3 -8.53535047238297 -1.3693186120711047 -0.9136186848757353 0 0 0 
	 207 21 3 -4.946412231568461 0.33144912259697423 0.7228749497991056 0 0 0 
	 210 21 3 -7.634763769883925 -1.8590748624478448 3.257745888797828 0 0 0 
	 211 22 1 6.371644577781098 -5.686538567791414 -5.093084311249592 0 0 0 
	 212 22 2 5.977807818531115 -4.9796033918141465 -5.609548505583971 0 0 0 
	 213 22 2 5.583971059281132 -4.2726682158368785 -6.126012699918352 0 0 0 
	 215 22 2 7.326265752399575 -5.746997261721384 -5.011578732923178 0 0 0 
	 216 22 2 8.28088692701805 -5.807455955651352 -4.930073154596766 0 0 0 
	 218 22 2 5.810860162412606 -6.333015049838713 -4.658125695241624 0 0 0 
	 219 22 2 5.250075747044113 -6.979491531886012 -4.223167079233657 0 0 0 
	 214 22 4 5.354232949718642 -3.8602893631834725 -6.427283479946741 0 0 0 
	 217 22 4 8.837749278878828 -5.8427235271105005 -4.882528233906358 0 0 0 
	 220 22 4 4.922951504745825 -7.356602813080269 -3.969441219895676 0 0 0 
	 221 23 1 -6.04336883805788 2.84154054680714 -7.932050417398901 0 0 0 
	 222 23 2 -6.364424640491269 3.126579239658407 -7.073402576138298 0 0 0 
	 223 23 2 -6.685480442924659 3.4116179325096736 -6.214754734877695 0 0 0 
	 225 23 2 -6.246681543384159 1.9595328022736456 -8.251935212967318 0 0 0 
	 226 23 2 -6.449994248710437 1.0775250577401512 -8.571820008535735 0 0 0 
	 228 23 2 -5.519000330298212 3.4385095984893677 -8.470813463091087 0 0 0 
	 229 23 2 -4.994631822538544 4.035478650171595 -9.009576508783274 0 0 0 
	 224 23 3 -6.872762994344137 3.5778905033395794 -5.713876827475676 0 0 0 
	 227 23 3 -6.5685933268174335 0.5630205400956125 -8.75841947261731 0 0 0 
	 230 23 3 -4.688750193012071 4.383710596986227 -9.323854952103716 0 0 0 
	 231 24 1 1.3520313546502511 -4.524184384776079 -7.717285476371969 0 0 0 
	 232 24 2 2.1384484325789495 -4.95947308787054 -7.380132803980914 0 0 0 
	 233 24 2 2.924865510507648 -5.394761790965001 -7.04298013158986 0 0 0 
	 235 24 2 1.4333760493932106 -3.721043317330863 -8.23685016572271 0 0 0 
	 236 24 2 1.51472074413617 -2.9179022498856457 -8.756414855073452 0 0 0 
	 238 24 2 0.4842695819785934 -4.892036749126835 -7.534873459412283 0 0 0 
	 239 24 2 -0.3834921906930644 -5.259889113477591 -7.352461442452596 0 0 0 
	 234 24 4 3.383608805966056 -5.648680201103437 -6.846307739361745 0 0 0 
	 237 24 4 1.5621718160695628 -2.4494032938759362 -9.059494257194718 0 0 0 
	 240 24 4 -0.8896865580848643 -5.474469659348865 -7.246054432559445 0 0 0 
	 241 25 1 2.294893463669856 -7.76623346076873 -1.6575304053497946 0 0 0 
	 242 25 2 2.718997507476633 -7.735174177594736 -2.5182109970651276 0 0 0 
	 243 25 2 3.1431015512834115 -7.704114894420746 -3.378891588780463 0 0 0 
	 245 25 2 1.344534018335355 -7.886561435090649 -1.5947760966604245 0 0 0 
	 246 25 2 0.3941745730008508 -8.006889409412572 -1.5320217879710543 0 0 0 
	 248 25 2 2.82114886519758 -7.676964769620802 -0.85960412232383 0 0 0 
	 249 25 2 3.3474042667253037 -7.587696078472872 -0.06167783929786852 0 0 0 
	 244 25 3 3.390495576837364 -7.685996979235913 -3.8809552672810725 0 0 0 
	 247 25 3 -0.1602017701109415 -8.077080727767022 -1.4954151079022542 0 0 0 
	 250 25 3 3.6543865842831424 -7.535622675303246 0.40377915913394347 0 0 0 
	 251 26 1 -4.210484554400546 4.600335379112119 6.317246253438892 0 0 0 
	 252 26 2 -4.346109798928293 4.430483156293405 5.3821761943254955 0 0 0 
	 253 26 2 -4.481735043456038 4.260630933474689 4.447106135212099 0 0 0 
	 255 26 2 -4.834558668580231 5.145929161461503 6.801455840985995 0 0 0 
	 256 26 2 -5.458632782759915 5.691522943810888 7.285665428533096 0 0 0 
	 258 26 2 -3.450785195693117 4.224593819581453 6.768106725005186 0 0 0 
	 259 26 2 -2.691085836985687 3.848852260050784 7.218967196571479 0 0 0 
	 254 26 4 -4.560849769430555 4.1615504701637684 3.901648600729286 0 0 0 
	 257 26 4 -5.822676016031397 6.0097859835146945 7.568121021268906 0 0 0 
	 260 26 4 -2.247927877739686 3.6296696836578937 7.481969138318483 0 0 0 
	 261 27 1 4.4744078414290165 -1.0929060194135387 4.132112057810046 0 0 0 
	 262 27 2 5.325530659319571 -1.0666747904355978 3.688826741684699 0 0 0 
	 263 27 2 6.176653477210126 -1.0404435614576566 3.2455414255593524 0 0 0 
	 265 27 2 4.11983548363037 -0.298389027369492 4.537847430236938 0 0 0 
	 266 27 2 3.7652631258317237 0.49612796467455467 4.943582802663831 0 0 0 
	 268 27 2 3.9778573813371083 -1.913654240435526 4.169662001508501 0 0 0 
	 269 27 2 3.4813069212451997 -2.7344024614575133 4.2072119452069545 0 0 0 
	 264 27 3 6.673141787646283 -1.0251420112205243 2.986958324486234 0 0 0 
	 267 27 3 3.55842925044918 0.9595962100335818 5.1802617699128515 0 0 0 
	 270 27 3 3.191652486191587 -3.213172257053672 4.229116079031053 0 0 0 
	 271 28 1 -7.911286591451804 -0.5128164743303041 4.573408422217496 0 0 0 
	 272 28 2 -8.508457511665725 0.19548876995795172 4.824984599477216 0 0 0 
	 273 28 2 -9.105628431879643 0.9037940142462113 5.076560776736936 0 0 0 
	 275 28 2 -8.26333338311697 -1.3628049982561128 4.299214028269185 0 0 0 
	 276 28 2 -8.615380174782144 -2.212793522181924 4.025019634320876 0 0 0 
	 278 28 2 -6.962068879572714 -0.3711331946927494 4.5960266389060855 0 0 0 
	 279 28 2 -6.012851167693625 -0.22944991505519496 4.618644855594677 0 0 0 
	 274 28 4 -9.453978135337762 1.316972073414358 5.223313546805106 0 0 0 
	 277 28 4 -8.82074080325349 -2.7086201611386467 3.8650729045176924 0 0 0 
	 280 28 4 -5.459140835764156 -0.1468013352666202 4.631838815329686 0 0 0 
	 281 29 1 3.213997801792362 -6.806635126055654 6.705159426821876 0 0 0 
	 282 29 2 3.5431864169952965 -7.36623544019505 7.412324431637488 0 0 0 
	 283 29 2 3.8723750321982298 -7.925835754334443 8.119489436453103 0 0 0 
	 285 29 2 3.813970722234188 -6.220698542781703 6.2379219977585 0 0 0 
	 286 29 2 4.413943642676013 -5.634761959507749 5.770684568695124 0 0 0 
	 288 29 2 2.284836266147603 -6.832971395190211 6.465231851069641 0 0 0 
	 289 29 2 1.3556747305028445 -6.85930766432477 6.225304275317404 0 0 0 
	 284 29 3 4.064401724399943 -8.252269270915756 8.532002355928876 0 0 0 
	 287 29 3 4.763927846267078 -5.292965619264611 5.498129401741487 0 0 0 
	 290 29 3 0.813663834710068 -6.874670487986593 6.085346522795267 0 0 0 
	 291 30 1 -0.44459195390689765 4.796672076560842 -1.5151078859053895 0 0 0 
	 292 30 2 -0.10982678780989025 4.05832113716859 -2.029277287821354 0 0 0 
	 293 30 2 0.22493837828711716 3.3199701977763367 -2.5434466897373187 0 0 0 
	 295 30 2 -0.6273787618297646 4.6861304937430415 -0.579175441058271 0 0 0 
	 296 30 2 -0.8101655697526317 4.57558891092524 0.35675700378884745 0 0 0 
	 298 30 2 -0.5965703120810382 5.645564598770896 -1.9368709288365427 0 0 0 
	 299 30 2 -0.7485486702551786 6.494457120980949 -2.358633971767696 0 0 0 
	 294 30 4 0.42021805851037164 2.8892654831308557 -2.8433788408549647 0 0 0 
	 297 30 4 -0.9167912077076372 4.51110632094819 0.9027175966163328 0 0 0 
	 300 30 4 -0.8372027125234273 6.9896444256034815 -2.6046624134775356 0 0 0 
	 301 31 1 -4.835598456118047 -3.3013206812836495 -0.5667212637557261 0 0 0 
	 302 31 2 -4.497990911616982 -3.7102824434333046 -1.3669533694571965 0 0 0 
	 303 31 2 -4.160383367115915 -4.11924420558296 -2.167185475158667 0 0 0 
	 305 31 2 -5.720397333485838 -2.929057840335053 -0.5544198875084485 0 0 0 
	 306 31 2 -6.605196210853629 -2.5567949993864563 -0.5421185112611709 0 0 0 
	 308 31 2 -4.288407123251323 -3.264621760082591 0.22120946569846656 0 0 0 
	 309 31 2 -3.7412157903845995 -3.2279228388815326 1.0091401951526593 0 0 0 
	 304 31 3 -3.9634456328236265 -4.357805233503592 -2.633987536817858 0 0 0 
	 307 31 3 -7.121328889318173 -2.3396416754997746 -0.5349427084502589 0 0 0 
	 310 31 3 -3.422020846212344 -3.2065151348475815 1.4687664540009382 0 0 0 
	 311 32 1 2.06218649944741 -2.8845898686106337 7.021980417184139 0 0 0 
	 312 32 2 2.474721201020964 -3.293799887022525 6.257806169496506 0 0 0 
	 313 32 2 2.8872559025945175 -3.703009905434419 5.493631921808877 0 0 0 
	 315 32 2 2.515331295672224 -2.1815448450696264 7.49313589951306 0 0 0 
	 316 32 2 2.968476091897037 -1.478499821528621 7.964291381841982 0 0 0 
	 318 32 2 1.1965070016490449 -3.178424873739748 7.314999182542849 0 0 0 
	 319 32 2 0.3308275038506784 -3.4722598788688597 7.6080179479015575 0 0 0 
	 314 32 4 3.1279011451790923 -3.9417157495080244 5.047863610657758 0 0 0 
	 317 32 4 3.2328105563615104 -1.0683902244630312 8.239132079867186 0 0 0 
	 320 32 4 -0.17415220319836877 -3.643663631860843 7.778945561027475 0 0 0 
	 321 33 1 2.60108346411313 2.9630775015764304 -6.976483163591515 0 0 0 
	 322 33 2 3.318249327878588 3.4044699442270927 -6.515564694206287 0 0 0 
	 323 33 2 4.035415191644053 3.8458623868777555 -6.054646224821062 0 0 0 
	 325 33 2 2.396489860086656 2.0460128251964305 -6.779674026284572 0 0 0 
	 326 33 2 2.1918962560601805 1.1289481488164292 -6.582864888977627 0 0 0 
	 328 33 2 2.088511204374143 3.438749735305766 -7.634210770283686 0 0 0 
	 329 33 2 1.5759389446351535 3.914421969035102 -8.291938376975857 0 0 0 
	 324 33 3 4.453761945507237 4.10334131175731 -5.785777117679681 0 0 0 
	 327 33 3 2.072549987044739 0.59399375426143 -6.468059558881909 0 0 0 
	 330 33 3 1.2769384597874123 4.19189743871055 -8.675612814212954 0 0 0 
	 331 34 1 7.441126280807153 8.1697760673892 -5.585179423001799 0 0 0 
	 332 34 2 7.913404985234768 8.423720547230696 -4.78889742113173 0 0 0 
	 333 34 2 8.385683689662384 8.677665027072191 -3.9926154192616603 0 0 0 
	 335 34 2 7.7708363455220875 8.439584688231536 -6.445466922239601 0 0 0 
	 336 34 2 8.100546410237023 8.709393309073873 -7.305754421477403 0 0 0 
	 338 34 2 6.639137511664604 7.646022966705369 -5.521173925634067 0 0 0 
	 339 34 2 5.837148742522054 7.122269866021538 -5.4571684282663355 0 0 0 
	 334 34 4 8.661179600578492 8.82579930697973 -3.528117584837453 0 0 0 
	 337 34 4 8.292877281320733 8.866781671231902 -7.807588796032786 0 0 0 
	 340 34 4 5.3693219605222335 6.81674722395597 -5.419831888135158 0 0 0 
	 341 35 1 -7.150609326329073 -6.30859437886076 -2.026449098046138 0 0 0 
	 342 35 2 -6.92732812692267 -6.588463236127571 -2.9171897610473323 0 0 0 
	 343 35 2 -6.704046927516266 -6.868332093394382 -3.8079304240485263 0 0 0 
	 345 35 2 -7.253137832716772 -5.374901732659565 -1.8281918212371444 0 0 0 
	 346 35 2 -7.35566633910447 -4.44120908645837 -1.629934544428151 0 0 0 
	 348 35 2 -7.271362019347778 -6.9624181677951436 -1.333965711853937 0 0 0 
	 349 35 2 -7.392114712366483 -7.616241956729527 -0.6414823256617361 0 0 0 
	 344 35 3 -6.573799561195864 -7.031588926800021 -4.327529144132557 0 0 0 
	 347 35 3 -7.4154746344972935 -3.8965550428410065 -1.5142844662895714 0 0 0 
	 350 35 3 -7.462553783294061 -7.997639166941251 -0.2375336837162858 0 0 0 
	 351 36 1 -5.231709134154174 2.8466701905455727 -3.782478265982516 0 0 0 
	 352 36 2 -5.411960241796849 3.295727831318973 -2.953348135389846 0 0 0 
	 353 36 2 -5.592211349439523 3.7447854720923752 -2.1242180047971777 0 0 0 
	 355 36 2 -5.957744483036264 2.5717530285208943 -4.347184584521594 0 0 0 
	 356 36 2 -6.683779831918355 2.2968358664962154 -4.911890903060672 0 0 0 
	 358 36 2 -4.32542267762941 2.6725297117968476 -4.046902078036105 0 0 0 
	 359 36 2 -3.4191362211046483 2.498389233048123 -4.311325890089696 0 0 0 
	 354 36 4 -5.697357828897751 4.006735762543528 -1.6405587619514548 0 0 0 
	 357 36 4 -7.107300452099572 2.1364675219818205 -5.241302922208467 0 0 0 
	 360 36 4 -2.890469121465201 2.3968072871113684 -4.465573113787622 0 0 0 
	 361 37 1 -0.45257878037189053 -0.7755380795954121 -6.681631720403336 0 0 0 
	 362 37 2 -1.082186202542946 -1.0280543115623078 -6.002345295880985 0 0 0 
	 363 37 2 -1.7117936247140007 -1.2805705435292007 -5.323058871358633 0 0 0 
	 365 37 2 0.3560094761623307 -1.2797685008503532 -6.797979104026753 0 0 0 
	 366 37 2 1.164597732696551 -1.7839989221052954 -6.914326487650167 0 0 0 
	 368 37 2 -0.6315596147350556 -0.018791426373574005 -7.244570761302274 0 0 0 
	 369 37 2 -0.8105404490982198 0.737955226848261 -7.80750980220121 0 0 0 
	 364 37 3 -2.07906462098045 -1.4278716788432217 -4.926808457053928 0 0 0 
	 367 37 3 1.6362742156748464 -2.07813333450401 -6.9821957947638245 0 0 0 
	 370 37 3 -0.9149459358100673 1.1793907745609986 -8.135890909392257 0 0 0 
	 371 38 1 -0.4572242233123092 -2.17447653988763 3.440503799540408 0 0 0 
	 372 38 2 -0.9815887006208798 -2.9243990714933012 3.730776243163718 0 0 0 
	 373 38 2 -1.5059531779294493 -3.6743216030989765 4.0210486867870285 0 0 0 
	 375 38 2 -0.17183815020307486 -1.5136857667249821 4.075728439631139 0 0 0 
	 376 38 2 0.1135479229061569 -0.8528949935623313 4.710953079721869 0 0 0 
	 378 38 2 -0.21824581911297414 -2.085344781444606 2.5150067158263676 0 0 0 
	 379 38 2 0.020732585086363678 -1.9962130230015838 1.5895096321123288 0 0 0 
	 374 38 4 -1.8118324563594495 -4.111776413202283 4.190374278900625 0 0 0 
	 377 38 4 0.2800231322198784 -0.4674337092174527 5.0815007864414605 0 0 0 
	 380 38 4 0.16013665420264314 -1.9442194972431546 1.04963633327914 0 0 0 
	 381 39 1 3.07296274788989 1.2289299695041696 0.1609759158660068 0 0 0 
	 382 39 2 3.7933232440382723 1.0052718608959674 -0.43287407027751257 0 0 0 
	 383 39 2 4.5136837401866545 0.7816137522877639 -1.0267240564210296 0 0 0 
	 385 39 2 3.0802797189071884 0.9093160649600064 1.0661794366043909 0 0 0 
	 386 39 2 3.0875966899244887 0.589702160415843 1.9713829573427752 0 0 0 
	 388 39 2 2.3452852807242093 1.7722019826565345 -0.1503776187288577 0 0 0 
	 389 39 2 1.6176078135585288 2.315473995808899 -0.4617311533237217 0 0 0 
	 384 39 3 4.933894029606543 0.6511465222663133 -1.373136548338083 0 0 0 
	 387 39 3 3.0918649230179116 0.4032607160984142 2.499418344440165 0 0 0 
	 390 39 3 1.1931292910452154 2.6323826701477784 -0.6433540485040596 0 0 0 
	 391 40 1 -4.482087986236357 -1.6870818311040758 2.896077284247577 0 0 0 
	 392 40 2 -5.261912957810962 -2.203158850129052 2.6789655062553113 0 0 0 
	 393 40 2 -6.041737929385561 -2.719235869154028 2.461853728263043 0 0 0 
	 395 40 2 -3.63702705310368 -2.1245304575027664 3.023005289647572 0 0 0 
	 396 40 2 -2.791966119970998 -2.5619790839014565 3.1499332950475596 0 0 0 
	 398 40 2 -4.547323947794441 -0.7335561856804114 2.986261056839857 0 0 0 
	 399 40 2 -4.612559909352519 0.21996945974325047 3.0764448294321367 0 0 0 
	 394 40 4 -6.496635829470747 -3.0202807969185965 2.33520519110089 0 0 0 
	 397 40 4 -2.2990139089769306 -2.8171574493006912 3.2239746315308846 0 0 0 