LAMMPS FENE chain data file 

500  atoms          
450  bonds          
450  angles         
0  dihedrals      
0  impropers    

4  atom types     
2  bond types     
3  angle types    
0  dihedral types 
0  improper types 

-15.000000 15.000000 xlo xhi  
-15.000000 15.000000 ylo yhi  
-15.000000 15.000000 zlo zhi  

Masses

	 1 1.0 
	 2 1.0 
	 3 1.0 
	 4 1.0 

Atoms 

	 1 1 1 0.03976607128972298 -3.908564833614969 4.9056310396390925 0 0 0 
	 2 1 2 0.5398280278382149 -3.2536130287707055 5.3981512655629995 0 0 0 
	 3 1 2 1.0398899843867069 -2.598661223926442 5.890671491486906 0 0 0 
	 5 1 2 0.49784771758792323 -4.614644234199753 4.443881014848013 0 0 0 
	 6 1 2 0.9559293638861235 -5.320723634784537 3.9821309900569326 0 0 0 
	 8 1 2 -0.9183775315569689 -3.857437237874449 4.874860838506266 0 0 0 
	 9 1 2 -1.8765211344036608 -3.8063096421339293 4.844090637373439 0 0 0 
	 4 1 3 1.3315927923733273 -2.216606004433955 6.177974956609185 0 0 0 
	 7 1 3 1.2231436575600738 -5.732603285125661 3.7127768089288025 0 0 0 
	 10 1 3 -2.4354382360642317 -3.7764852112852925 4.82614135337929 0 0 0 
	 11 2 1 -3.295600387377707 -9.300663955841191 5.856457603911604 0 0 0 
	 12 2 2 -3.026861459995453 -8.385626987463134 5.966397293791693 0 0 0 
	 13 2 2 -2.758122532613199 -7.470590019085077 6.076336983671782 0 0 0 
	 15 2 2 -4.212613773412251 -9.51214650449591 5.666822213100804 0 0 0 
	 16 2 2 -5.129627159446795 -9.723629053150628 5.477186822290005 0 0 0 
	 18 2 2 -2.647325928725418 -10.00421837556453 5.936153304842315 0 0 0 
	 19 2 2 -1.9990514700731281 -10.707772795287868 6.015849005773026 0 0 0 
	 14 2 4 -2.6013581583068843 -6.936818454197877 6.1404684694351666 0 0 0 
	 17 2 4 -5.664551634633612 -9.846993873199214 5.3665661776503715 0 0 0 
	 20 2 4 -1.6208913691926259 -11.118179540126482 6.062338164649274 0 0 0 
	 21 3 1 -5.821287060044893 2.5724492482410843 9.433295589743802 0 0 0 
	 22 3 2 -5.6623620183574115 1.6321810274054116 9.543923362075844 0 0 0 
	 23 3 2 -5.50343697666993 0.6919128065697389 9.654551134407887 0 0 0 
	 25 3 2 -5.646843758350473 2.9925413793535607 8.587900926955275 0 0 0 
	 26 3 2 -5.472400456656051 3.412633510466037 7.742506264166748 0 0 0 
	 28 3 2 -6.154655403426796 3.092625337964281 10.168062480200286 0 0 0 
	 29 3 2 -6.4880237468086985 3.6128014276874776 10.902829370656768 0 0 0 
	 24 3 3 -5.410730702352232 0.14342301108226252 9.719084001601578 0 0 0 
	 27 3 3 -5.370641864000972 3.657687253614981 7.249359377540108 0 0 0 
	 30 3 3 -6.682488613781476 3.916237480026009 11.331443390089717 0 0 0 
	 31 4 1 -4.6921231032349455 14.054216537473627 -10.758203445290551 0 0 0 
	 32 4 2 -4.057199323740826 14.316409596386052 -11.428820022845153 0 0 0 
	 33 4 2 -3.4222755442467063 14.578602655298477 -12.099436600399756 0 0 0 
	 35 4 2 -5.597034216547702 14.371484050589705 -10.803779778229973 0 0 0 
	 36 4 2 -6.50194532986046 14.688751563705784 -10.849356111169396 0 0 0 
	 38 4 2 -4.422135769416308 13.474755965445123 -10.042010534796526 0 0 0 
	 39 4 2 -4.152148435597671 12.89529539341662 -9.3258176243025 0 0 0 
	 34 4 4 -3.051903339541804 14.731548606330724 -12.490629603973275 0 0 0 
	 37 4 4 -7.029810145959567 14.873824279690163 -10.87594230538406 0 0 0 
	 40 4 4 -3.994655824203466 12.557276726399992 -8.90803842651432 0 0 0 
	 41 5 1 -11.847890235347986 3.6351323747864184 12.486343698874185 0 0 0 
	 42 5 2 -11.027950018157057 3.892104244390919 12.058250836909798 0 0 0 
	 43 5 2 -10.208009800966128 4.149076113995419 11.63015797494541 0 0 0 
	 45 5 2 -12.673678928138226 3.662557812204349 11.99754836313312 0 0 0 
	 46 5 2 -13.499467620928467 3.6899832496222795 11.508753027392054 0 0 0 
	 48 5 2 -11.842041759748675 3.350735067763987 13.403231896579637 0 0 0 
	 49 5 2 -11.836193284149363 3.0663377607415563 14.320120094285091 0 0 0 
	 44 5 3 -9.729711340938087 4.298976371264711 11.380437138799518 0 0 0 
	 47 5 3 -13.981177691722774 3.705981421449406 11.223622414876433 0 0 0 
	 50 5 3 -11.832781673383097 2.900439331645138 14.854971542946604 0 0 0 
	 51 6 1 -3.531651021902195 0.33687373505357776 -7.60332726875177 0 0 0 
	 52 6 2 -3.9943783216088606 0.8717807687478738 -8.252448144560388 0 0 0 
	 53 6 2 -4.4571056213155265 1.4066878024421698 -8.901569020369006 0 0 0 
	 55 6 2 -3.0021702588629267 0.7591320012894143 -6.922924389446531 0 0 0 
	 56 6 2 -2.4726894958236585 1.1813902675252508 -6.242521510141292 0 0 0 
	 58 6 2 -3.5984044852347967 -0.6202915648765546 -7.634609272248392 0 0 0 
	 59 6 2 -3.665157948567399 -1.577456864806687 -7.665891275745013 0 0 0 
	 54 6 4 -4.727029879477748 1.7187169054305091 -9.2802228645907 0 0 0 
	 57 6 4 -2.1638257173840856 1.4277075894961553 -5.845619830546569 0 0 0 
	 60 6 4 -3.7040974688447506 -2.1358032897659305 -7.684139111118043 0 0 0 
	 61 7 1 12.056107969941168 -12.091146620694577 -12.77059904126492 0 0 0 
	 62 7 2 12.602017179016396 -12.49251419833831 -12.090534924388239 0 0 0 
	 63 7 2 13.147926388091626 -12.893881775982042 -11.410470807511556 0 0 0 
	 65 7 2 11.60421180894715 -12.644379669141276 -13.411943764315822 0 0 0 
	 66 7 2 11.152315647953131 -13.197612717587976 -14.053288487366725 0 0 0 
	 68 7 2 11.962094921859958 -11.136545994604145 -12.809318435090697 0 0 0 
	 69 7 2 11.868081873778747 -10.181945368513714 -12.848037828916476 0 0 0 
	 64 7 3 13.466373426718842 -13.128012862940885 -11.013766739333493 0 0 0 
	 67 7 3 10.888709554039954 -13.52033199584855 -14.427406242479753 0 0 0 
	 70 7 3 11.813240929064708 -9.625095003294295 -12.870624141981512 0 0 0 
	 71 8 1 -7.343346855998987 -5.814524980852369 -6.936409870386723 0 0 0 
	 72 8 2 -7.0004369743102846 -5.316921345073122 -6.190485320114033 0 0 0 
	 73 8 2 -6.657527092621582 -4.819317709293875 -5.444560769841343 0 0 0 
	 75 8 2 -7.851701175454947 -6.6149642447543515 -6.786500328680667 0 0 0 
	 76 8 2 -8.360055494910906 -7.415403508656334 -6.636590786974612 0 0 0 
	 78 8 2 -7.177902418231729 -5.511689352729633 -7.832243962365468 0 0 0 
	 79 8 2 -7.012457980464471 -5.2088537246068976 -8.728078054344214 0 0 0 
	 74 8 4 -6.457496328303173 -4.529048921755981 -5.009438115515607 0 0 0 
	 77 8 4 -8.656595514593551 -7.8823264125991575 -6.549143554312746 0 0 0 
	 80 8 4 -6.915948725100238 -5.032199608201968 -9.250647941331817 0 0 0 
	 81 9 1 -0.8867360807115721 -5.076317635850206 11.640663687410926 0 0 0 
	 82 9 2 -0.5219521910577265 -5.124863421560601 12.527329363152788 0 0 0 
	 83 9 2 -0.15716830140388105 -5.173409207270997 13.41399503889465 0 0 0 
	 85 9 2 -1.461381099584664 -5.774887798542421 11.319131682657876 0 0 0 
	 86 9 2 -2.0360261184577557 -6.473457961234637 10.997599677904827 0 0 0 
	 88 9 2 -0.6768749514923259 -4.329201687447595 11.075530016422116 0 0 0 
	 89 9 2 -0.4670138222730798 -3.582085739044984 10.510396345433303 0 0 0 
	 84 9 3 0.05562230089419551 -5.2017275822687274 13.931216683077402 0 0 0 
	 87 9 3 -2.3712357128003925 -6.880957222805096 10.81003934179888 0 0 0 
	 90 9 3 -0.34459483022851933 -3.1462681024767942 10.180735037356497 0 0 0 
	 91 10 1 8.173486534743317 -9.065817053486079 10.977814466035396 0 0 0 
	 92 10 2 7.706319867156674 -9.055951366359729 10.139209688495036 0 0 0 
	 93 10 2 7.239153199570031 -9.046085679233379 9.300604910954677 0 0 0 
	 95 10 2 7.7203840282060066 -9.346060712014662 11.776414247167423 0 0 0 
	 96 10 2 7.267281521668697 -9.626304370543245 12.57501402829945 0 0 0 
	 98 10 2 9.093755708867269 -8.795439082083846 11.017819462443729 0 0 0 
	 99 10 2 10.014024882991222 -8.52506111068161 11.05782445885206 0 0 0 
	 94 10 4 6.966639310144489 -9.040330695076342 8.8114187907228 0 0 0 
	 97 10 4 7.0029717261885995 -9.789779838018253 13.040863900626466 0 0 0 
	 100 10 4 10.55084856789686 -8.367340627363642 11.081160706756922 0 0 0 
	 101 11 1 -12.01158404370357 6.596769935084614 2.3001704309968485 0 0 0 
	 102 11 2 -12.276436681388887 6.333792492648115 1.4156954765291214 0 0 0 
	 103 11 2 -12.541289319074204 6.070815050211616 0.5312205220613944 0 0 0 
	 105 11 2 -11.084966372104537 6.5749380742413654 2.5501765519869304 0 0 0 
	 106 11 2 -10.158348700505503 6.553106213398117 2.8001826729770123 0 0 0 
	 108 11 2 -12.673349077617285 6.881579238364362 2.9346392644744936 0 0 0 
	 109 11 2 -13.335114111531 7.16638854164411 3.569108097952139 0 0 0 
	 104 11 3 -12.695786691057306 5.9174115421236575 0.015276798621886911 0 0 0 
	 107 11 3 -9.617821725406067 6.540370961239555 2.9460195768878936 0 0 0 
	 110 11 3 -13.721143714647335 7.3325273018906305 3.939214917480765 0 0 0 
	 111 12 1 -3.670137066567648 12.121473068253149 3.341744274363122 0 0 0 
	 112 12 2 -3.651153444551381 13.034747755296891 3.046500361470245 0 0 0 
	 113 12 2 -3.632169822535114 13.948022442340635 2.7512564485773683 0 0 0 
	 115 12 2 -4.317972355829602 11.840649725072922 3.992165436312793 0 0 0 
	 116 12 2 -4.965807645091557 11.559826381892695 4.642586598262464 0 0 0 
	 118 12 2 -3.0412853993219606 11.489021724389634 2.9865670253063277 0 0 0 
	 119 12 2 -2.412433732076273 10.856570380526117 2.6313897762495335 0 0 0 
	 114 12 4 -3.6210960430256254 14.480766009782819 2.5790308327231903 0 0 0 
	 117 12 4 -5.343711563827696 11.396012765037561 5.021998942733105 0 0 0 
	 120 12 4 -2.0456035928496226 10.487640429939066 2.4242030476330707 0 0 0 
	 121 13 1 4.827215585220307 8.00655509269188 -10.490200478574131 0 0 0 
	 122 13 2 4.722347527657898 7.086150473577615 -10.742109247012655 0 0 0 
	 123 13 2 4.617479470095488 6.165745854463351 -10.994018015451179 0 0 0 
	 125 13 2 4.157132873516562 8.649877025668326 -10.732535061387244 0 0 0 
	 126 13 2 3.487050161812817 9.293198958644773 -10.974869644200357 0 0 0 
	 128 13 2 5.60216635448646 8.283637778829698 -9.995957127322495 0 0 0 
	 129 13 2 6.3771171237526145 8.560720464967517 -9.50171377607086 0 0 0 
	 124 13 3 4.556306436517416 5.628843159980031 -11.140964797040317 0 0 0 
	 127 13 3 3.0961685799856324 9.668470086214365 -11.116231484174673 0 0 0 
	 130 13 3 6.829171739157871 8.722352031881243 -9.213405154507406 0 0 0 
	 131 14 1 6.530726257267525 6.344203117661118 -7.43537755775555 0 0 0 
	 132 14 2 6.841263998600852 6.014908531548948 -6.5887776600678585 0 0 0 
	 133 14 2 7.151801739934179 5.685613945436778 -5.742177762380166 0 0 0 
	 135 14 2 5.8495658501836285 7.0199409326011395 -7.466983020596429 0 0 0 
	 136 14 2 5.168405443099732 7.6956787475411605 -7.498588483437309 0 0 0 
	 138 14 2 6.901348923018094 5.997759888833268 -8.250371992602362 0 0 0 
	 139 14 2 7.271971588768663 5.651316660005417 -9.065366427449174 0 0 0 
	 134 14 4 7.332948755711953 5.493525436871345 -5.248327822062346 0 0 0 
	 137 14 4 4.771061872300793 8.089859139589507 -7.517025003427822 0 0 0 
	 140 14 4 7.488168143789829 5.449224776522504 -9.540779847776482 0 0 0 
	 141 15 1 -9.597411412130686 -6.178939816759411 -11.563572353951631 0 0 0 
	 142 15 2 -10.304312766142166 -6.747915320483187 -11.876873091038238 0 0 0 
	 143 15 2 -11.011214120153646 -7.316890824206965 -12.190173828124843 0 0 0 
	 145 15 2 -8.96458447722105 -5.812734266227532 -12.185684534520796 0 0 0 
	 146 15 2 -8.331757542311415 -5.446528715695653 -12.80779671508996 0 0 0 
	 148 15 2 -9.52333699302884 -5.976169863567513 -10.628159436295862 0 0 0 
	 149 15 2 -9.449262573926996 -5.773399910375615 -9.692746518640092 0 0 0 
	 144 15 3 -11.42357324332701 -7.648793201379168 -12.372932591425364 0 0 0 
	 147 15 3 -7.962608496947462 -5.232908811218723 -13.170695487088638 0 0 0 
	 150 15 3 -9.406052496117587 -5.6551174376803415 -9.147088983340893 0 0 0 
	 151 16 1 12.80471429013929 12.621062824024685 3.3449412892533004 0 0 0 
	 152 16 2 12.84103379400894 13.287852517141713 2.6552512148056824 0 0 0 
	 153 16 2 12.877353297878589 13.954642210258744 1.9655611403580642 0 0 0 
	 155 16 2 12.721508965819368 12.885261921878943 4.264112497841675 0 0 0 
	 156 16 2 12.638303641499446 13.1494610197332 5.18328370643005 0 0 0 
	 158 16 2 12.85160011058956 11.6900740330534 3.1154601551125443 0 0 0 
	 159 16 2 12.898485931039833 10.759085242082113 2.885979020971788 0 0 0 
	 154 16 4 12.898539675135885 14.34360286457701 1.5632419302636202 0 0 0 
	 157 16 4 12.589767202312824 13.303577160148183 5.719466911439934 0 0 0 
	 160 16 4 12.925835992969157 10.216008447348862 2.7521150260563467 0 0 0 
	 161 17 1 11.08108935236782 -10.363057660685211 8.899240596622864 0 0 0 
	 162 17 2 10.389398693045294 -10.960798755167263 9.192275775011684 0 0 0 
	 163 17 2 9.697708033722767 -11.558539849649314 9.485310953400502 0 0 0 
	 165 17 2 10.850834603625444 -9.512779499348966 8.517652076045739 0 0 0 
	 166 17 2 10.620579854883067 -8.66250133801272 8.136063555468613 0 0 0 
	 168 17 2 12.003034760432724 -10.615594727539404 8.98779393881117 0 0 0 
	 169 17 2 12.924980168497628 -10.868131794393598 9.076347280999475 0 0 0 
	 164 17 3 9.294221815784626 -11.907222154763843 9.65624814079398 0 0 0 
	 167 17 3 10.486264584783347 -8.166505743899911 7.913470251798625 0 0 0 
	 170 17 3 13.462781656535487 -11.015445083391878 9.128003397275986 0 0 0 
	 171 18 1 5.764214257325703 -2.6697683187687593 1.5425074160548569 0 0 0 
	 172 18 2 5.680094060784622 -1.8096398765362625 1.1245327094079256 0 0 0 
	 173 18 2 5.5959738642435415 -0.9495114343037656 0.7065580027609941 0 0 0 
	 175 18 2 5.872569099363039 -3.456795874817156 1.003576201308901 0 0 0 
	 176 18 2 5.980923941400374 -4.243823430865553 0.46464498656294495 0 0 0 
	 178 18 2 5.7399796118294475 -2.74286920495286 2.4994133374477436 0 0 0 
	 179 18 2 5.715744966333193 -2.8159700911369603 3.4563192588406304 0 0 0 
	 174 18 4 5.546903749594578 -0.4477698430014758 0.46273942388361755 0 0 0 
	 177 18 4 6.0441309325888195 -4.7029228385604505 0.1502684446278042 0 0 0 
	 180 18 4 5.7016080897937105 -2.8586122747443516 4.014514379653148 0 0 0 
	 181 19 1 0.3329348417591538 8.256003734451202 -0.9216573817251572 0 0 0 
	 182 19 2 1.1596762719283906 7.774361423681683 -0.8434314773307484 0 0 0 
	 183 19 2 1.9864177020976275 7.292719112912165 -0.7652055729363396 0 0 0 
	 185 19 2 -0.461919775774402 7.916169012634388 -0.5041427127214522 0 0 0 
	 186 19 2 -1.2567743933079578 7.576334290817574 -0.08662804371774724 0 0 0 
	 188 19 2 0.3010480291234723 9.077480767037533 -1.417397955123271 0 0 0 
	 189 19 2 0.2691612164877908 9.898957799623867 -1.9131385285213844 0 0 0 
	 184 19 3 2.4686835363630157 7.011761098296612 -0.7195737953729343 0 0 0 
	 187 19 3 -1.7204395868691984 7.378097369757766 0.15692217986774692 0 0 0 
	 190 19 3 0.25056057578364366 10.378152735299228 -2.202320529670284 0 0 0 
	 191 20 1 -0.20003702501953158 -1.4348846493286604 -4.137641283404296 0 0 0 
	 192 20 2 -0.3185743415990549 -0.9888388268564785 -4.979420368932821 0 0 0 
	 193 20 2 -0.4371116581785782 -0.5427930043842967 -5.821199454461347 0 0 0 
	 195 20 2 -0.9633002897621232 -1.648792076824575 -3.596094608447686 0 0 0 
	 196 20 2 -1.7265635545047149 -1.8626995043204897 -3.0545479334910755 0 0 0 
	 198 20 2 0.6817635563025828 -1.6670230443049276 -3.8374088728323805 0 0 0 
	 199 20 2 1.5635641376246971 -1.899161439281195 -3.537176462260465 0 0 0 
	 194 20 4 -0.5062584261833002 -0.28259960794219063 -6.312237254352987 0 0 0 
	 197 20 4 -2.171800458937893 -1.98747883702644 -2.738645706433053 0 0 0 
	 200 20 4 2.0779478100625974 -2.0345755030173507 -3.362040889426848 0 0 0 
	 201 21 1 6.665981568333386 7.974749816844025 13.79802968624624 0 0 0 
	 202 21 2 7.390835596685816 7.347938091491459 13.85542043934979 0 0 0 
	 203 21 2 8.115689625038247 6.721126366138892 13.912811192453342 0 0 0 
	 205 21 2 5.768304640987674 7.688680370577886 13.982258907663871 0 0 0 
	 206 21 2 4.870627713641963 7.402610924311746 14.166488129081502 0 0 0 
	 208 21 2 6.838804467326667 8.887630988462732 13.556409711725058 0 0 0 
	 209 21 2 7.011627366319948 9.800512160081437 13.314789737203876 0 0 0 
	 204 21 3 8.538521141577164 6.355486193016562 13.946289131763747 0 0 0 
	 207 21 3 4.346982839356965 7.235737080656499 14.273955174908453 0 0 0 
	 210 21 3 7.112440724066029 10.333026176859015 13.173844752066518 0 0 0 
	 211 22 1 8.86936855512954 -6.85606977198127 -11.73017098958254 0 0 0 
	 212 22 2 9.10080978585532 -7.785406765620598 -11.796259634398051 0 0 0 
	 213 22 2 9.332251016581099 -8.714743759259926 -11.862348279213563 0 0 0 
	 215 22 2 8.174316815497127 -6.493903328213718 -12.284552217838622 0 0 0 
	 216 22 2 7.479265075864715 -6.131736884446167 -12.838933446094702 0 0 0 
	 218 22 2 9.332979064036174 -6.288899222109492 -11.109701116510948 0 0 0 
	 219 22 2 9.796589572942807 -5.721728672237716 -10.489231243439354 0 0 0 
	 214 22 4 9.467258401171136 -9.256857005549534 -11.900899988689279 0 0 0 
	 217 22 4 7.073818227745807 -5.920473125581762 -13.16232249591075 0 0 0 
	 220 22 4 10.067029036471675 -5.390879184812513 -10.127290484147592 0 0 0 
	 221 23 1 -11.656922020567329 6.333167725087307 -2.2235564003671486 0 0 0 
	 222 23 2 -10.93369777343679 6.570026847491324 -1.6383688710259405 0 0 0 
	 223 23 2 -10.210473526306252 6.806885969895338 -1.053181341684731 0 0 0 
	 225 23 2 -12.498929161348451 6.053296066595586 -1.8570924462779488 0 0 0 
	 226 23 2 -13.340936302129576 5.773424408103868 -1.4906284921887478 0 0 0 
	 228 23 2 -11.53813912691674 6.3761802611750085 -3.1752078837975564 0 0 0 
	 229 23 2 -11.419356233266154 6.419192797262712 -4.126859367227964 0 0 0 
	 224 23 3 -9.788592715480108 6.945053791297682 -0.7118219495690263 0 0 0 
	 227 23 3 -13.832107134251897 5.610165940650365 -1.2768578523033811 0 0 0 
	 230 23 3 -11.350066211969978 6.444283443313869 -4.681989399229036 0 0 0 
	 231 24 1 -7.936433331377266 -8.7842162323047 13.179107114531352 0 0 0 
	 232 24 2 -8.228673116624993 -9.59437430920164 12.755031887293288 0 0 0 
	 233 24 2 -8.520912901872718 -10.40453238609858 12.330956660055225 0 0 0 
	 235 24 2 -8.508486303617078 -8.338273578244813 13.807987505576916 0 0 0 
	 236 24 2 -9.080539275856887 -7.892330924184925 14.43686789662248 0 0 0 
	 238 24 2 -7.07214057388973 -8.420000809467648 12.97430195072385 0 0 0 
	 239 24 2 -6.207847816402193 -8.055785386630594 12.76949678691635 0 0 0 
	 234 24 4 -8.691386109933893 -10.877124597621796 12.083579444166356 0 0 0 
	 237 24 4 -9.414236842996777 -7.632197709316658 14.80371479139906 0 0 0 
	 240 24 4 -5.70367704120113 -7.843326389975648 12.65002710802864 0 0 0 
	 241 25 1 -6.137828526128804 -8.593023841512224 0.06477069257654677 0 0 0 
	 242 25 2 -5.764144839507061 -9.474970985444166 0.12903372754280068 0 0 0 
	 243 25 2 -5.390461152885317 -10.356918129376107 0.1932967625090546 0 0 0 
	 245 25 2 -5.642084304898273 -7.83697179979103 0.38760652907204596 0 0 0 
	 246 25 2 -5.146340083667742 -7.080919758069836 0.7104423655675451 0 0 0 
	 248 25 2 -7.007256433981079 -8.467128739301476 -0.32232817888520615 0 0 0 
	 249 25 2 -7.876684341833353 -8.341233637090728 -0.7094270503469591 0 0 0 
	 244 25 3 -5.172479002355967 -10.87138729666974 0.23078353290603582 0 0 0 
	 247 25 3 -4.8571559546166 -6.63988940039914 0.8987632701899195 0 0 0 
	 250 25 3 -8.383850621413846 -8.267794827467792 -0.9352347253663151 0 0 0 
	 251 26 1 11.789232337797731 -1.1830910853797516 0.17484295653789284 0 0 0 
	 252 26 2 12.321583227462114 -1.3188807816325 0.9620936717901096 0 0 0 
	 253 26 2 12.853934117126496 -1.4546704778852484 1.7493443870423264 0 0 0 
	 255 26 2 10.977191166853682 -1.6803911641067981 0.05285210282380762 0 0 0 
	 256 26 2 10.165149995909633 -2.1776912428338444 -0.0691387508902776 0 0 0 
	 258 26 2 12.068922619077398 -0.550001310399957 -0.4904169050002386 0 0 0 
	 259 26 2 12.348612900357065 0.08308846457983754 -1.15567676653837 0 0 0 
	 254 26 4 13.164472136097386 -1.533881134032685 2.2085739709394527 0 0 0 
	 257 26 4 9.691459312858939 -2.4677829554246213 -0.14030008222349416 0 0 0 
	 260 26 4 12.51176556443687 0.4523908333180511 -1.5437450191022797 0 0 0 
	 261 27 1 4.623173258369579 -12.847234454018157 4.321230474239311 0 0 0 
	 262 27 2 5.194397548156424 -12.157282473805179 4.666584026063677 0 0 0 
	 263 27 2 5.765621837943268 -11.4673304935922 5.011937577888044 0 0 0 
	 265 27 2 4.160273778825597 -12.71604395153975 3.490499998153731 0 0 0 
	 266 27 2 3.697374299281616 -12.584853449061342 2.659769522068151 0 0 0 
	 268 27 2 4.514848448126715 -13.668376936709542 4.806607398500524 0 0 0 
	 269 27 2 4.4065236378838515 -14.489519419400928 5.291984322761738 0 0 0 
	 264 27 3 6.098836006985595 -11.06485850513463 5.213393816452257 0 0 0 
	 267 27 3 3.4273496028809602 -12.508325655948937 2.175176744351563 0 0 0 
	 270 27 3 4.34333416524218 -14.968519200970903 5.575120861914112 0 0 0 
	 271 28 1 2.6920974332915018 -4.571181533010949 0.9317617183226878 0 0 0 
	 272 28 2 1.7684554059405402 -4.75337092003454 0.7438989158125224 0 0 0 
	 273 28 2 0.8448133785895786 -4.9355603070581315 0.556036113302357 0 0 0 
	 275 28 2 3.0028366151333277 -3.663993557586262 0.9770512106264122 0 0 0 
	 276 28 2 3.3135757969751536 -2.7568055821615745 1.0223407029301366 0 0 0 
	 278 28 2 3.3050002788006374 -5.296180121412045 1.0743350285291289 0 0 0 
	 279 28 2 3.917903124309773 -6.0211787098131415 1.21690833873557 0 0 0 
	 274 28 4 0.30602219596818436 -5.041837449488559 0.4464494785047606 0 0 0 
	 277 28 4 3.4948403197162183 -2.2276125964971736 1.0487595734406425 0 0 0 
	 280 28 4 4.275429784190102 -6.444094553047114 1.3000761030226604 0 0 0 
	 281 29 1 -9.256734606144025 -5.575152314415444 -2.9491655147845925 0 0 0 
	 282 29 2 -8.562071202768012 -5.645204980692675 -2.29027600966442 0 0 0 
	 283 29 2 -7.8674077993920015 -5.715257646969906 -1.631386504544246 0 0 0 
	 285 29 2 -9.040004131432994 -5.325708703957823 -3.850501071907133 0 0 0 
	 286 29 2 -8.823273656721966 -5.076265093500206 -4.751836629029673 0 0 0 
	 288 29 2 -10.168128484231064 -5.754543258595828 -2.7067194627822264 0 0 0 
	 289 29 2 -11.079522362318105 -5.933934202776216 -2.4642734107798607 0 0 0 
	 284 29 3 -7.462187480755993 -5.756121702298293 -1.2470342932241443 0 0 0 
	 287 29 3 -8.696847546473865 -4.930756320733263 -5.277615704017822 0 0 0 
	 290 29 3 -11.611168791202214 -6.038578920214773 -2.322846547111813 0 0 0 
	 291 30 1 0.06419711593532718 -10.288428794455928 11.448715159432176 0 0 0 
	 292 30 2 -0.7251610066079184 -9.946053385390696 11.022930197693956 0 0 0 
	 293 30 2 -1.514519129151164 -9.603677976325462 10.597145235955738 0 0 0 
	 295 30 2 0.5014189423958249 -9.775821886230629 12.132580081844669 0 0 0 
	 296 30 2 0.9386407688563226 -9.26321497800533 12.816445004257163 0 0 0 
	 298 30 2 0.4163334120180751 -11.14341111174646 11.190635198757901 0 0 0 
	 299 30 2 0.768469708100823 -11.998393429036993 10.932555238083628 0 0 0 
	 294 30 4 -1.9749780339680574 -9.403958987704076 10.348770674941775 0 0 0 
	 297 30 4 1.1936868342916127 -8.964194281540571 13.215366208997784 0 0 0 
	 300 30 4 0.9738825474824264 -12.497133114123136 10.782008594356968 0 0 0 
	 301 31 1 -11.056226843685508 4.561102574487864 -6.776603996852496 0 0 0 
	 302 31 2 -10.273168534174435 4.956913777799881 -6.387048897747951 0 0 0 
	 303 31 2 -9.49011022466336 5.352724981111896 -5.997493798643404 0 0 0 
	 305 31 2 -11.463150085694078 3.795789812892048 -6.363917854545999 0 0 0 
	 306 31 2 -11.87007332770265 3.030477051296231 -5.951231712239503 0 0 0 
	 308 31 2 -11.43236191118801 4.9306041327716645 -7.578845238263539 0 0 0 
	 309 31 2 -11.808496978690513 5.300105691055466 -8.38108647967458 0 0 0 
	 304 31 3 -9.0333262107819 5.583614849710572 -5.770253324165752 0 0 0 
	 307 31 3 -12.107445218874316 2.5840446070320047 -5.71049812922738 0 0 0 
	 310 31 3 -12.027909101400306 5.515648266721016 -8.849060537164355 0 0 0 
	 311 32 1 7.737330634206904 -0.19288647465725273 10.752099110663757 0 0 0 
	 312 32 2 8.539212264347865 -0.2442494618701403 10.226791872195596 0 0 0 
	 313 32 2 9.341093894488827 -0.29561244908302964 9.701484633727436 0 0 0 
	 315 32 2 7.258404672386409 0.6365727153046166 10.8171173794973 0 0 0 
	 316 32 2 6.779478710565914 1.4660319052664867 10.882135648330848 0 0 0 
	 318 32 2 7.414374965886439 -0.9709826774062362 11.212388080298371 0 0 0 
	 319 32 2 7.091419297565974 -1.7490788801552197 11.672677049932982 0 0 0 
	 314 32 4 9.808858178737719 -0.325574191623879 9.395055411287675 0 0 0 
	 317 32 4 6.500105232837292 1.9498830994109104 10.920062971817082 0 0 0 
	 320 32 4 6.903028491045703 -2.202968331758796 11.941178948886508 0 0 0 
	 321 33 1 8.006905331913162 2.6168997905308355 0.13126755597039796 0 0 0 
	 322 33 2 8.750406770995673 2.3907400737482054 0.6948785854819183 0 0 0 
	 323 33 2 9.493908210078184 2.1645803569655753 1.2584896149934386 0 0 0 
	 325 33 2 8.150035764956515 2.8073925842810965 -0.7986927521428263 0 0 0 
	 326 33 2 8.293166197999868 2.997885378031357 -1.7286530602560506 0 0 0 
	 328 33 2 7.120273459787298 2.6525667135632047 0.49761683457210165 0 0 0 
	 329 33 2 6.233641587661434 2.688233636595574 0.8639661131738053 0 0 0 
	 324 33 3 9.927617382876315 2.032653855509041 1.587262715541825 0 0 0 
	 327 33 3 8.37665895060849 3.109006174385676 -2.2711299066554314 0 0 0 
	 330 33 3 5.716439662254681 2.7090393416977894 1.0776698590247993 0 0 0 
	 331 34 1 2.8940292152022282 -10.45809753818869 -1.2009858144658303 0 0 0 
	 332 34 2 2.709046015908293 -10.119487223369491 -2.0800331799001524 0 0 0 
	 333 34 2 2.5240628166143577 -9.78087690855029 -2.9590805453344746 0 0 0 
	 335 34 2 3.3843935517806893 -9.922024393294738 -0.5734761326795863 0 0 0 
	 336 34 2 3.874757888359151 -9.385951248400787 0.0540335491066577 0 0 0 
	 338 34 2 2.5886480779177026 -11.332780997901843 -0.949448130817752 0 0 0 
	 339 34 2 2.2832669406331765 -12.207464457614993 -0.6979104471696738 0 0 0 
	 334 34 4 2.4161559503595624 -9.583354224905758 -3.471858175171162 0 0 0 
	 337 34 4 4.160803751363253 -9.073241913879315 0.4200808634819668 0 0 0 
	 340 34 4 2.10512794388387 -12.717696475780999 -0.551180131708295 0 0 0 
	 341 35 1 9.236796697527556 9.06171667473701 -7.643655772056515 0 0 0 
	 342 35 2 8.629205434084545 8.54462397257845 -7.109756910883272 0 0 0 
	 343 35 2 8.021614170641536 8.02753127041989 -6.575858049710028 0 0 0 
	 345 35 2 8.90004845985059 9.743439917889734 -8.229705295703441 0 0 0 
	 346 35 2 8.563300222173625 10.425163161042459 -8.815754819350367 0 0 0 
	 348 35 2 10.18113619864753 8.897086133742846 -7.591505109582831 0 0 0 
	 349 35 2 11.125475699767506 8.732455592748682 -7.539354447109147 0 0 0 
	 344 35 3 7.667185933633113 7.725893860827398 -6.264417047358971 0 0 0 
	 347 35 3 8.366863750195394 10.822835052881548 -9.157617041477742 0 0 0 
	 350 35 3 11.67634040875416 8.636421110502086 -7.508933227332832 0 0 0 
	 351 36 1 -10.981833411227477 -7.331339804596646 -0.6446595193506743 0 0 0 
	 352 36 2 -10.10956823588849 -7.318871420404445 -0.24391271239335804 0 0 0 
	 353 36 2 -9.237303060549506 -7.306403036212244 0.15683409456395825 0 0 0 
	 355 36 2 -11.675466528055034 -6.7626910024636615 -0.3024437408237214 0 0 0 
	 356 36 2 -12.369099644882594 -6.194042200330676 0.039772037703231566 0 0 0 
	 358 36 2 -11.160465469738904 -7.912456990921831 -1.3876221048349433 0 0 0 
	 359 36 2 -11.339097528250331 -8.493574177247018 -2.1305846903192123 0 0 0 
	 354 36 4 -8.728481708268431 -7.2991298121001265 0.3906030652890591 0 0 0 
	 357 36 4 -12.773718963032003 -5.862330399086435 0.23939790851062082 0 0 0 
	 360 36 4 -11.443299562381998 -8.832559202603376 -2.563979531851703 0 0 0 
	 361 37 1 -4.149782247071126 -3.976708340047716 9.466592854271848 0 0 0 
	 362 37 2 -3.7588187137322358 -3.7143174037061106 8.62999348054214 0 0 0 
	 363 37 2 -3.3678551803933443 -3.4519264673645043 7.793394106812427 0 0 0 
	 365 37 2 -4.625882481635265 -3.3333361430824757 9.996687923877381 0 0 0 
	 366 37 2 -5.1019827161994025 -2.689963946117236 10.526782993482911 0 0 0 
	 368 37 2 -4.064645545845879 -4.8824714733545616 9.77309715839603 0 0 0 
	 369 37 2 -3.979508844620633 -5.788234606661408 10.07960146252021 0 0 0 
	 364 37 3 -3.1397931192789907 -3.298865087831901 7.305377805470096 0 0 0 
	 367 37 3 -5.379707853028482 -2.3146634978875125 10.836005117419472 0 0 0 
	 370 37 3 -3.929845768905905 -6.316596434423735 10.258395639925983 0 0 0 
	 371 38 1 1.0372745817952 11.840393536300159 -10.556617297997114 0 0 0 
	 372 38 2 1.0519062436100186 12.253766869089684 -11.422936178208678 0 0 0 
	 373 38 2 1.0665379054248372 12.66714020187921 -12.28925505842024 0 0 0 
	 375 38 2 1.5736447060305996 11.06252730102507 -10.386819742518053 0 0 0 
	 376 38 2 2.1100148302659987 10.284661065749983 -10.217022187038994 0 0 0 
	 378 38 2 0.48627279574498217 12.20488643878572 -9.860095973264611 0 0 0 
	 379 38 2 -0.06472899030523571 12.569379341271281 -9.163574648532109 0 0 0 
	 374 38 4 1.0750730414834813 12.908274646006433 -12.794607738543652 0 0 0 
	 377 38 4 2.4228974027366483 9.830905761839517 -10.117973613009543 0 0 0 
	 380 38 4 -0.38614669883452923 12.782000201054526 -8.757270542438148 0 0 0 
	 381 39 1 -9.770240526616497 0.8105741788772547 3.317315004992495 0 0 0 
	 382 39 2 -9.156994024625966 1.2448770426301592 2.7198957633100704 0 0 0 
	 383 39 2 -8.543747522635435 1.6791799063830637 2.1224765216276453 0 0 0 
	 385 39 2 -9.94527847872717 -0.12890507431364662 3.2259889509620696 0 0 0 
	 386 39 2 -10.120316430837843 -1.068384327504548 3.134662896931644 0 0 0 
	 388 39 2 -10.208449076496356 1.315750568315251 4.006060300705345 0 0 0 
	 389 39 2 -10.646657626376214 1.8209269577532474 4.694805596418195 0 0 0 
	 384 39 3 -8.186020396474293 1.9325232435722581 1.7739819639795644 0 0 0 
	 387 39 3 -10.222421902902402 -1.6164138918659066 3.081389365413896 0 0 0 
	 390 39 3 -10.902279280472797 2.115613184925412 5.0965736855840245 0 0 0 
	 391 40 1 5.775051610635225 12.945704623711444 -3.668215404829013 0 0 0 
	 392 40 2 4.885537157123162 13.024827114422795 -3.315931899031811 0 0 0 
	 393 40 2 3.9960227036110982 13.103949605134146 -2.9636483932346094 0 0 0 
	 395 40 2 6.0956538991939695 13.583607152666588 -4.310005507684712 0 0 0 
	 396 40 2 6.416256187752713 14.22150968162173 -4.951795610540411 0 0 0 
	 398 40 2 6.343963775588545 12.22867960404495 -3.378708807770516 0 0 0 
	 399 40 2 6.912875940541865 11.511654584378459 -3.0892022107120187 0 0 0 
	 394 40 4 3.477139272395728 13.150104391382433 -2.758149681519575 0 0 0 