LAMMPS FENE chain data file 

1000  atoms          
900  bonds          
900  angles         
0  dihedrals      
0  impropers    

4  atom types     
2  bond types     
3  angle types    
0  dihedral types 
0  improper types 

-15.000000 15.000000 xlo xhi  
-15.000000 15.000000 ylo yhi  
-15.000000 15.000000 zlo zhi  

Masses

	 1 1.0 
	 2 1.0 
	 3 1.0 
	 4 1.0 

Atoms 

	 1 1 1 -11.491439726621858 -5.361950805492734 -13.256058023178493 0 0 0 
	 2 1 2 -11.338622259397379 -4.936888861987706 -12.408963479520688 0 0 0 
	 3 1 2 -11.1858047921729 -4.5118269184826785 -11.561868935862885 0 0 0 
	 5 1 2 -10.794989549636528 -5.88056748221118 -13.665440354998783 0 0 0 
	 6 1 2 -10.098539372651198 -6.399184158929626 -14.074822686819072 0 0 0 
	 8 1 2 -12.340707370831666 -5.268396072279316 -13.693770235016009 0 0 0 
	 9 1 2 -13.189975015041473 -5.174841339065898 -14.131482446853523 0 0 0 
	 4 1 3 -11.096661269625288 -4.263874118104745 -11.067730452062499 0 0 0 
	 7 1 3 -9.692276769409755 -6.701710553682053 -14.313629047047575 0 0 0 
	 10 1 3 -13.685381140830527 -5.120267744691404 -14.386814570425408 0 0 0 
	 11 2 1 -7.898084998096637 1.6706237356182474 -6.595939033910106 0 0 0 
	 12 2 2 -8.365138368773405 2.503111766479134 -6.698041078026924 0 0 0 
	 13 2 2 -8.832191739450174 3.33559979734002 -6.800143122143743 0 0 0 
	 15 2 2 -7.5136632318601775 1.436782627641866 -5.747918844372133 0 0 0 
	 16 2 2 -7.129241465623718 1.2029415196654845 -4.8998986548341605 0 0 0 
	 18 2 2 -7.815453393656329 1.0719768127337423 -7.34185717933126 0 0 0 
	 19 2 2 -7.732821789216019 0.4733298898492373 -8.087775324752414 0 0 0 
	 14 2 4 -9.104639539011622 3.8212178153422034 -6.859702647878554 0 0 0 
	 17 2 4 -6.904995435319117 1.0665342066792622 -4.40522021093701 0 0 0 
	 20 2 4 -7.684620019959173 0.12411918483327633 -8.522894242914752 0 0 0 
	 21 3 1 -7.26186404210144 -11.44572661286005 -12.97340152798036 0 0 0 
	 22 3 2 -8.12423661305537 -11.307806106828512 -13.372013473213205 0 0 0 
	 23 3 2 -8.986609184009302 -11.169885600796976 -13.77062541844605 0 0 0 
	 25 3 2 -7.1669636633261 -12.046305725730837 -12.230502714351186 0 0 0 
	 26 3 2 -7.072063284550761 -12.646884838601625 -11.487603900722013 0 0 0 
	 28 3 2 -6.494391849922849 -10.9830680060208 -13.31768839637669 0 0 0 
	 29 3 2 -5.726919657744258 -10.520409399181549 -13.66197526477302 0 0 0 
	 24 3 3 -9.489659850399095 -11.089431972278579 -14.00314905316521 0 0 0 
	 27 3 3 -7.016704730265146 -12.997222654442918 -11.054246259438328 0 0 0 
	 30 3 3 -5.2792275456400795 -10.250525211858653 -13.862809271337545 0 0 0 
	 31 4 1 12.171088999996005 -13.272081164409917 -4.677323551510035 0 0 0 
	 32 4 2 13.030386842506005 -13.06948714469284 -4.30027861913123 0 0 0 
	 33 4 2 13.889684685016002 -12.866893124975762 -3.9232336867524253 0 0 0 
	 35 4 2 12.054592469951293 -13.279072133382426 -5.6302032316587765 0 0 0 
	 36 4 2 11.938095939906582 -13.286063102354934 -6.583082911807518 0 0 0 
	 38 4 2 11.42828768753072 -13.467684215154485 -4.1014888037401 0 0 0 
	 39 4 2 10.685486375065432 -13.663287265899054 -3.525654055970165 0 0 0 
	 34 4 4 14.390941759813503 -12.748713280140802 -3.703290809531455 0 0 0 
	 37 4 4 11.870139630713833 -13.290141167588898 -7.1389293918942816 0 0 0 
	 40 4 4 10.252185609460682 -13.777389045500051 -3.1897504531043688 0 0 0 
	 41 5 1 -12.452577358640287 2.615458313956128 -11.835907905626556 0 0 0 
	 42 5 2 -11.911141781486334 2.0396301045028977 -12.380765124528768 0 0 0 
	 43 5 2 -11.369706204332383 1.4638018950496674 -12.92562234343098 0 0 0 
	 45 5 2 -12.113431294166753 2.9435160097103994 -10.999870768168828 0 0 0 
	 46 5 2 -11.77428522969322 3.271573705464671 -10.1638336307111 0 0 0 
	 48 5 2 -13.333159000267774 2.8632288276550866 -12.127087824182071 0 0 0 
	 49 5 2 -14.213740641895258 3.1109993413540455 -12.418267742737585 0 0 0 
	 44 5 3 -11.05386878432591 1.1279021062019496 -13.243455721123937 0 0 0 
	 47 5 3 -11.576450025416992 3.4629406946546633 -9.676145300527425 0 0 0 
	 50 5 3 -14.727413266177958 3.2555321410117712 -12.588122695228304 0 0 0 
	 51 6 1 6.922335251915742 11.770521389261754 -2.0414494908583327 0 0 0 
	 52 6 2 7.512664161799384 12.31390376027381 -2.568561791064756 0 0 0 
	 53 6 2 8.102993071683025 12.857286131285868 -3.0956740912711793 0 0 0 
	 55 6 2 5.996297963996853 11.694399179004732 -2.282821300499422 0 0 0 
	 56 6 2 5.070260676077964 11.61827696874771 -2.5241931101405113 0 0 0 
	 58 6 2 7.258043629950989 11.30326122850672 -1.2729653810108201 0 0 0 
	 59 6 2 7.593752007986235 10.836001067751686 -0.5044812711633075 0 0 0 
	 54 6 4 8.447351602448483 13.1742591810429 -3.4031562663915933 0 0 0 
	 57 6 4 4.530072258125278 11.57387234609778 -2.6649933324311466 0 0 0 
	 60 6 4 7.7895818951734626 10.563432640644583 -0.05619887375225896 0 0 0 
	 61 7 1 2.953864528060138 10.833985612421145 -3.286190658407806 0 0 0 
	 62 7 2 3.5404099572949876 11.08038510305747 -4.005114681137514 0 0 0 
	 63 7 2 4.126955386529837 11.326784593693793 -4.7240387038672225 0 0 0 
	 65 7 2 3.270771994556708 10.852878893213576 -2.38020351632486 0 0 0 
	 66 7 2 3.587679461053278 10.871772174006006 -1.4742163742419143 0 0 0 
	 68 7 2 2.0504116323287187 10.56869284099239 -3.4732537777610433 0 0 0 
	 69 7 2 1.1469587365972995 10.303400069563635 -3.6603168971142805 0 0 0 
	 64 7 3 4.469106886916833 11.470517629898316 -5.1434110504595525 0 0 0 
	 67 7 3 3.772542149842944 10.882793254468258 -0.9457238746935297 0 0 0 
	 70 7 3 0.6199445474206384 10.148645952896862 -3.7694370500703354 0 0 0 
	 71 8 1 -3.2747989085302 1.4146267274167912 -8.525861954759614 0 0 0 
	 72 8 2 -3.4902413579999716 1.3828909774685914 -7.590887413319212 0 0 0 
	 73 8 2 -3.7056838074697427 1.3511552275203915 -6.65591287187881 0 0 0 
	 75 8 2 -3.1743774121853274 0.5996794841631292 -9.023231549512966 0 0 0 
	 76 8 2 -3.073955915840455 -0.21526775909053275 -9.520601144266317 0 0 0 
	 78 8 2 -3.1597779554053016 2.2613097206186525 -8.963466901446665 0 0 0 
	 79 8 2 -3.0447570022804027 3.107992713820514 -9.401071848133716 0 0 0 
	 74 8 4 -3.8313585696604426 1.332642706717275 -6.110511056038575 0 0 0 
	 77 8 4 -3.0153767096392787 -0.6906536509885022 -9.810733407872439 0 0 0 
	 80 8 4 -2.9776614462908784 3.6018911265216005 -9.656341400367829 0 0 0 
	 81 9 1 -12.985987219539858 -7.559169278240429 -5.410683645688996 0 0 0 
	 82 9 2 -13.746303135229272 -8.091282325793562 -5.164969557828567 0 0 0 
	 83 9 2 -14.506619050918689 -8.623395373346696 -4.919255469968137 0 0 0 
	 85 9 2 -12.854208678919566 -6.6966263639500205 -5.0103661001836866 0 0 0 
	 86 9 2 -12.722430138299273 -5.834083449659612 -4.610048554678378 0 0 0 
	 88 9 2 -12.357449844470736 -7.889599144977703 -6.0567152790547345 0 0 0 
	 89 9 2 -11.728912469401614 -8.220029011714978 -6.702746912420473 0 0 0 
	 84 9 3 -14.95013666840418 -8.933794651086023 -4.775922252049553 0 0 0 
	 87 9 3 -12.645559322937435 -5.330933416323541 -4.376529986466948 0 0 0 
	 90 9 3 -11.362265667277958 -8.412779767311722 -7.0795986985504875 0 0 0 
	 91 10 1 5.994647619491563 6.574943786914222 -0.48577104393192183 0 0 0 
	 92 10 2 6.290517462327156 7.145960846381719 -1.1985126197485254 0 0 0 
	 93 10 2 6.586387305162748 7.716977905849215 -1.9112541955651292 0 0 0 
	 95 10 2 6.157451921459681 6.823153590402875 0.4271838578637792 0 0 0 
	 96 10 2 6.320256223427799 7.071363393891527 1.3401387596594803 0 0 0 
	 98 10 2 5.535973474687854 5.755716923958072 -0.6859843699110189 0 0 0 
	 99 10 2 5.077299329884144 4.936490061001924 -0.8861976958901158 0 0 0 
	 94 10 4 6.758978046816843 8.050071190538588 -2.3270201147914817 0 0 0 
	 97 10 4 6.415225399575867 7.216152445926575 1.8726957857069726 0 0 0 
	 100 10 4 4.8097394120819805 4.4586077242775035 -1.002988802711256 0 0 0 
	 101 11 1 -2.2189951703144906 -13.074242756686209 -2.108374824723307 0 0 0 
	 102 11 2 -1.4583208497975482 -13.281051480901553 -1.560465407306058 0 0 0 
	 103 11 2 -0.6976465292806058 -13.487860205116899 -1.0125559898888088 0 0 0 
	 105 11 2 -2.9072092804903615 -12.493940607979491 -1.7748920594097162 0 0 0 
	 106 11 2 -3.5954233906662325 -11.913638459272772 -1.4414092940961252 0 0 0 
	 108 11 2 -2.291455380655562 -13.447736181177582 -2.9897670074541467 0 0 0 
	 109 11 2 -2.363915590996634 -13.821229605668956 -3.8711591901849864 0 0 0 
	 104 11 3 -0.2539198423123892 -13.608498627575848 -0.6929421630620805 0 0 0 
	 107 11 3 -3.9968816216021574 -11.575128872527186 -1.2468776809965307 0 0 0 
	 110 11 3 -2.4061840470289257 -14.03910076995559 -4.385304630111309 0 0 0 
	 111 12 1 3.7978638899316417 5.808316887780652 12.323092198963502 0 0 0 
	 112 12 2 3.0557851075014844 6.347813295224489 12.040492292696412 0 0 0 
	 113 12 2 2.3137063250713266 6.887309702668325 11.757892386429322 0 0 0 
	 115 12 2 3.645391271857077 5.020492847154774 12.850050813799053 0 0 0 
	 116 12 2 3.492918653782512 4.232668806528895 13.377009428634603 0 0 0 
	 118 12 2 4.692415290436364 6.056644520962694 12.078733490395043 0 0 0 
	 119 12 2 5.586966690941086 6.304972154144735 11.834374781826584 0 0 0 
	 114 12 4 1.8808270353204013 7.202015940343897 11.593042441106853 0 0 0 
	 117 12 4 3.403976293239016 3.7731047828304654 13.68440195395534 0 0 0 
	 120 12 4 6.108788341235507 6.449829940167593 11.691832201828316 0 0 0 
	 121 13 1 11.605553347247417 6.6304222202902725 -7.0946926676433675 0 0 0 
	 122 13 2 11.55105086968175 6.853977295462556 -6.162677319967205 0 0 0 
	 123 13 2 11.496548392116086 7.077532370634839 -5.230661972291042 0 0 0 
	 125 13 2 10.819699305407582 6.670349557938657 -7.6446374218071895 0 0 0 
	 126 13 2 10.033845263567747 6.710276895587041 -8.194582175971012 0 0 0 
	 128 13 2 12.445909866652917 6.366939807469605 -7.476763261155709 0 0 0 
	 129 13 2 13.286266386058418 6.103457394648937 -7.858833854668049 0 0 0 
	 124 13 3 11.46475528020278 7.207939497818671 -4.68698635281328 0 0 0 
	 127 13 3 9.575430405827843 6.733567842548599 -8.515383282566575 0 0 0 
	 130 13 3 13.776474355711626 5.9497593205035475 -8.081708367550247 0 0 0 
	 131 14 1 -12.481810862669038 -1.539484246802294 -12.195303752402584 0 0 0 
	 132 14 2 -13.433212538504065 -1.5025387747595458 -12.072544299349723 0 0 0 
	 133 14 2 -14.384614214339095 -1.4655933027167976 -11.949784846296861 0 0 0 
	 135 14 2 -12.067431992380236 -1.0254528453957366 -12.892198199378727 0 0 0 
	 136 14 2 -11.653053122091432 -0.5114214439891789 -13.589092646354873 0 0 0 
	 138 14 2 -11.944788057122812 -2.0904611202515992 -11.621168758479302 0 0 0 
	 139 14 2 -11.407765251576585 -2.641437993700905 -11.047033764556017 0 0 0 
	 134 14 4 -14.939598525242861 -1.4440417773585277 -11.87817516534936 0 0 0 
	 137 14 4 -11.411332114422965 -0.21156979316868707 -13.995614407090956 0 0 0 
	 140 14 4 -11.094501948341287 -2.962841169879667 -10.712121684767435 0 0 0 
	 141 15 1 -6.28518609613497 -5.372434855363872 -2.723154562277127 0 0 0 
	 142 15 2 -5.61741658784732 -6.043677111687335 -2.8816402623483244 0 0 0 
	 143 15 2 -4.9496470795596705 -6.714919368010797 -3.0401259624195216 0 0 0 
	 145 15 2 -7.129414051584342 -5.616970570597647 -2.337043900402997 0 0 0 
	 146 15 2 -7.973642007033714 -5.861506285831421 -1.9509332385288671 0 0 0 
	 148 15 2 -6.108727648973248 -4.456656883806636 -2.95077952408006 0 0 0 
	 149 15 2 -5.932269201811525 -3.540878912249399 -3.1784044858829925 0 0 0 
	 144 15 3 -4.560114866391874 -7.10647735086615 -3.13257595412772 0 0 0 
	 147 15 3 -8.46610831437918 -6.004152119717789 -1.7257020191022914 0 0 0 
	 150 15 3 -5.829335107633853 -3.0066750955076778 -3.31118571360137 0 0 0 
	 151 16 1 -6.328073757216853 -7.66961039139994 -10.594407208074976 0 0 0 
	 152 16 2 -6.461601076608229 -6.720011376960839 -10.549327647823771 0 0 0 
	 153 16 2 -6.595128395999604 -5.770412362521739 -10.504248087572567 0 0 0 
	 155 16 2 -5.482513630353162 -8.022359685858907 -10.8811056683376 0 0 0 
	 156 16 2 -4.636953503489468 -8.375108980317872 -11.167804128600222 0 0 0 
	 158 16 2 -7.040106564689168 -8.266460111380077 -10.35278830806356 0 0 0 
	 159 16 2 -7.7521393721614835 -8.863309831360212 -10.111169408052143 0 0 0 
	 154 16 4 -6.673019332311242 -5.216479604098932 -10.47795167742603 0 0 0 
	 157 16 4 -4.143710096152314 -8.580879402085605 -11.335044897086751 0 0 0 
	 160 16 4 -8.167491843187001 -9.211472168015288 -9.970225049712152 0 0 0 
	 161 17 1 -7.3513807347480755 12.32589165502887 -1.4383015431721202 0 0 0 
	 162 17 2 -7.336927294181973 12.7118729999739 -2.3171698492397743 0 0 0 
	 163 17 2 -7.322473853615872 13.09785434491893 -3.1960381553074284 0 0 0 
	 165 17 2 -6.84157746419427 11.53370746089084 -1.253518351592038 0 0 0 
	 166 17 2 -6.331774193640465 10.741523266752809 -1.068735160011956 0 0 0 
	 168 17 2 -7.875637445867983 12.732094504221871 -0.7442164286845483 0 0 0 
	 169 17 2 -8.39989415698789 13.138297353414872 -0.05013131419697636 0 0 0 
	 164 17 3 -7.314042679952312 13.323010129470198 -3.7087113338468933 0 0 0 
	 167 17 3 -6.034388952484078 10.27941582017229 -0.9609449649235743 0 0 0 
	 170 17 3 -8.705710571807836 13.375249015444123 0.35475166925410706 0 0 0 
	 171 18 1 -0.479999077303328 8.891210646466986 12.57821363362577 0 0 0 
	 172 18 2 -0.9711483500025546 9.70340300950041 12.434283242959987 0 0 0 
	 173 18 2 -1.4622976227017812 10.515595372533832 12.290352852294205 0 0 0 
	 175 18 2 0.153453063781682 8.834352159492335 13.297314111593746 0 0 0 
	 176 18 2 0.786905204866692 8.777493672517682 14.01641458956172 0 0 0 
	 178 18 2 -0.622301945689111 8.135876770408213 12.003043546323578 0 0 0 
	 179 18 2 -0.7646048140748941 7.380542894349443 11.427873459021388 0 0 0 
	 174 18 4 -1.7488013651096637 10.989374250969995 12.206393457739164 0 0 0 
	 177 18 4 1.1564189538329481 8.744326221782469 14.435889868376371 0 0 0 
	 180 18 4 -0.8476148206332679 6.939931466648493 11.092357574761776 0 0 0 
	 181 19 1 12.175275681212817 -4.506389104033277 7.673606396962241 0 0 0 
	 182 19 2 12.814824137171486 -4.537410125425246 8.388879399886775 0 0 0 
	 183 19 2 13.454372593130156 -4.568431146817215 9.104152402811309 0 0 0 
	 185 19 2 11.770724272093885 -5.316962618722866 7.355945044790385 0 0 0 
	 186 19 2 11.366172862974953 -6.127536133412455 7.038283692618529 0 0 0 
	 188 19 2 11.94027863437308 -3.664794567951719 7.275994746209563 0 0 0 
	 189 19 2 11.705281587533342 -2.823200031870161 6.878383095456885 0 0 0 
	 184 19 3 13.827442525772714 -4.5865267426291965 9.521394987850622 0 0 0 
	 187 19 3 11.130184540988909 -6.600370683648049 6.852981237184945 0 0 0 
	 190 19 3 11.568199976876828 -2.332269885822585 6.646442965851157 0 0 0 
	 191 20 1 13.60067158744909 -6.53459206776294 -12.76673890936171 0 0 0 
	 192 20 2 13.559519522352636 -7.060768072903654 -11.964837843673145 0 0 0 
	 193 20 2 13.518367457256183 -7.586944078044369 -11.16293677798458 0 0 0 
	 195 20 2 13.357176167406065 -5.606246561778735 -12.744725233226179 0 0 0 
	 196 20 2 13.113680747363038 -4.67790105579453 -12.722711557090648 0 0 0 
	 198 20 2 13.88531907258857 -6.93676156860643 -13.590653651185805 0 0 0 
	 199 20 2 14.169966557728051 -7.338931069449921 -14.414568393009901 0 0 0 
	 194 20 4 13.494362085949918 -7.893880081043119 -10.695161156332917 0 0 0 
	 197 20 4 12.97164175233794 -4.136366177303743 -12.709870246011587 0 0 0 
	 200 20 4 14.336010924059414 -7.573529944941957 -14.895185325740623 0 0 0 
	 201 21 1 3.2861454404657953 -8.451234093625485 9.947587268195297 0 0 0 
	 202 21 2 3.4542195886517133 -9.289969054513588 10.383333462780644 0 0 0 
	 203 21 2 3.622293736837632 -10.12870401540169 10.819079657365991 0 0 0 
	 205 21 2 3.939690752190821 -8.081681639961927 9.349331879992665 0 0 0 
	 206 21 2 4.593236063915846 -7.712129186298368 8.751076491790032 0 0 0 
	 208 21 2 2.4645259805548516 -7.982051586400941 10.110096461812583 0 0 0 
	 209 21 2 1.6429065206439084 -7.512869079176398 10.272605655429867 0 0 0 
	 204 21 3 3.7203369899460843 -10.61796607591975 11.073264937540777 0 0 0 
	 207 21 3 4.974470829088778 -7.496556921661292 8.402094182005165 0 0 0 
	 210 21 3 1.1636285023625246 -7.239179283295414 10.36740268503995 0 0 0 
	 211 22 1 7.080637624283652 -5.400772419101085 1.6121574795942406 0 0 0 
	 212 22 2 7.480270090427867 -6.226906377187631 1.893931458697618 0 0 0 
	 213 22 2 7.879902556572081 -7.053040335274177 2.1757054378009952 0 0 0 
	 215 22 2 6.791957696254662 -5.292734960038806 0.7029865349460167 0 0 0 
	 216 22 2 6.503277768225672 -5.184697500976528 -0.2061844097022072 0 0 0 
	 218 22 2 6.969685086168426 -4.682675920076819 2.2395544451390865 0 0 0 
	 219 22 2 6.858732548053202 -3.964579421052552 2.8669514106839324 0 0 0 
	 214 22 4 8.113021495156207 -7.534951810824662 2.3400735922779656 0 0 0 
	 217 22 4 6.334881143542095 -5.121675649856865 -0.736534127413671 0 0 0 
	 220 22 4 6.794010234152654 -3.54568979662173 3.2329329739184263 0 0 0 
	 221 23 1 5.008009456575441 -8.86775922715666 5.378331099761029 0 0 0 
	 222 23 2 5.323449199004694 -8.141863677966992 4.835032452088502 0 0 0 
	 223 23 2 5.638888941433946 -7.415968128777323 4.291733804415974 0 0 0 
	 225 23 2 4.0883875357896216 -9.139003519116471 5.33014337425525 0 0 0 
	 226 23 2 3.168765615003802 -9.410247811076285 5.281955648749473 0 0 0 
	 228 23 2 5.612191634932008 -9.322410484386515 5.969817472939335 0 0 0 
	 229 23 2 6.216373813288573 -9.77706174161637 6.5613038461176405 0 0 0 
	 224 23 3 5.8228954578510095 -6.992529058416683 3.974809593273666 0 0 0 
	 227 23 3 2.632319494545408 -9.568473648052843 5.253846142204435 0 0 0 
	 230 23 3 6.568813417329904 -10.042274975000453 6.9063375638049855 0 0 0 
	 231 24 1 13.053002759596705 8.711493581072467 1.3088306426121321 0 0 0 
	 232 24 2 12.534463692812903 8.7793301195223 2.1138868147331396 0 0 0 
	 233 24 2 12.015924626029102 8.847166657972132 2.9189429868541468 0 0 0 
	 235 24 2 12.915901739340471 7.973527781927484 0.7103243439510349 0 0 0 
	 236 24 2 12.778800719084236 7.235561982782501 0.11181804528993777 0 0 0 
	 238 24 2 13.70864284663674 9.381622841767618 1.1022807691522216 0 0 0 
	 239 24 2 14.364282933676776 10.05175210246277 0.8957308956923112 0 0 0 
	 234 24 4 11.713443503738551 8.886737972067866 3.388559087258068 0 0 0 
	 237 24 4 12.698825123934766 6.8050819332812615 -0.23731062892903543 0 0 0 
	 240 24 4 14.746739651116798 10.442660837868274 0.7752434695073638 0 0 0 
	 241 25 1 -1.547423892759549 0.8915771423696546 13.600725324669042 0 0 0 
	 242 25 2 -0.6639947262294188 1.1061231038311936 13.292305256994412 0 0 0 
	 243 25 2 0.21943444030070955 1.3206690652927309 12.983885189319777 0 0 0 
	 245 25 2 -1.819710100190254 -0.02586124174237625 13.676666305706354 0 0 0 
	 246 25 2 -2.091996307620958 -0.9432996258544071 13.752607286743665 0 0 0 
	 248 25 2 -2.158566851858971 1.5944695650201455 13.833204411306365 0 0 0 
	 249 25 2 -2.769709810958394 2.2973619876706346 14.065683497943688 0 0 0 
	 244 25 3 0.7347681207766181 1.4458208761452958 12.80397348317624 0 0 0 
	 247 25 3 -2.250829928622202 -1.4784720165864238 13.796906192348763 0 0 0 
	 250 25 3 -3.126209870433058 2.7073825675500887 14.201296298482125 0 0 0 
	 251 26 1 7.583402216600983 11.992273827796456 -9.24098730198642 0 0 0 
	 252 26 2 7.696597273842074 12.834839802112063 -9.686935121738664 0 0 0 
	 253 26 2 7.809792331083164 13.677405776427669 -10.132882941490907 0 0 0 
	 255 26 2 6.771769539964032 11.492920160261738 -9.357169542172965 0 0 0 
	 256 26 2 5.9601368633270795 10.99356649272702 -9.47335178235951 0 0 0 
	 258 26 2 8.281839835996843 11.649061521015568 -8.678857242047632 0 0 0 
	 259 26 2 8.980277455392704 11.305849214234678 -8.116727182108846 0 0 0 
	 254 26 4 7.875822781140467 14.168902594778439 -10.393019169679715 0 0 0 
	 257 26 4 5.486684468622192 10.702276853331767 -9.54112475580166 0 0 0 
	 260 26 4 9.387699400040288 11.10564203527916 -7.788817980477887 0 0 0 
	 261 27 1 7.992657342012947 11.257725088882815 10.32590139812442 0 0 0 
	 262 27 2 8.049927443048693 11.166475655167819 9.371965511193832 0 0 0 
	 263 27 2 8.107197544084439 11.075226221452821 8.418029624263244 0 0 0 
	 265 27 2 7.323503647601502 11.825952476718356 10.714425488714836 0 0 0 
	 266 27 2 6.654349953190056 12.3941798645539 11.102949579305252 0 0 0 
	 268 27 2 8.604540935388647 10.780747134762269 10.891313194464592 0 0 0 
	 269 27 2 9.216424528764346 10.303769180641725 11.456724990804766 0 0 0 
	 264 27 3 8.140605103021958 11.021997385119073 7.861567023553734 0 0 0 
	 267 27 3 6.2640102981167125 12.725645840791298 11.329588632149662 0 0 0 
	 270 27 3 9.573356624900171 10.025532040738073 11.786548538669866 0 0 0 
	 271 28 1 -5.415058438017056 3.694524246016254 11.45369223176962 0 0 0 
	 272 28 2 -4.966285451695496 4.092768152453623 12.20309505918191 0 0 0 
	 273 28 2 -4.517512465373937 4.491012058890991 12.9524978865942 0 0 0 
	 275 28 2 -6.23892379159169 3.2194444383388685 11.58463136082034 0 0 0 
	 276 28 2 -7.062789145166325 2.744364630661483 11.71557048987106 0 0 0 
	 278 28 2 -5.039966070763981 3.7713601472562703 10.57335027530661 0 0 0 
	 279 28 2 -4.664873703510907 3.848196048496287 9.693008318843603 0 0 0 
	 274 28 4 -4.255728223353026 4.72332100431279 13.389649535918036 0 0 0 
	 277 28 4 -7.5433772680848605 2.4672347428496755 11.79195164848398 0 0 0 
	 280 28 4 -4.44606982261328 3.893016990886297 9.179475510906848 0 0 0 
	 281 29 1 -0.2571518574191678 -1.1245519316089658 0.3742573073995392 0 0 0 
	 282 29 2 -0.3004474631651413 -0.4385083986930781 1.0443839830865889 0 0 0 
	 283 29 2 -0.34374306891111484 0.2475351342228096 1.7145106587736387 0 0 0 
	 285 29 2 -0.5287577028763797 -2.020563932010039 0.5863722758735724 0 0 0 
	 286 29 2 -0.8003635483335915 -2.9165759324111127 0.7984872443476057 0 0 0 
	 288 29 2 0.05774959378401712 -0.9145834641237807 -0.5079843367615435 0 0 0 
	 289 29 2 0.37265104498720203 -0.7046149966385954 -1.3902259809226263 0 0 0 
	 284 29 3 -0.3689988389295994 0.6477271950904107 2.105417886257751 0 0 0 
	 287 29 3 -0.9588002915169644 -3.4392495993117387 0.922220975957458 0 0 0 
	 290 29 3 0.5563435581890599 -0.5821333906055705 -1.904866940016591 0 0 0 
	 291 30 1 1.2126543054988947 4.337807568378831 -6.170219673094834 0 0 0 
	 292 30 2 2.1720904980742652 4.366847966259369 -6.154764975834235 0 0 0 
	 293 30 2 3.1315266906496353 4.395888364139908 -6.139310278573636 0 0 0 
	 295 30 2 0.7049795816275848 5.118246162538561 -5.936164176495905 0 0 0 
	 296 30 2 0.19730485775627482 5.898684756698293 -5.702108679896974 0 0 0 
	 298 30 2 0.7608928367948343 3.528328576338562 -6.419729866954364 0 0 0 
	 299 30 2 0.3091313680907739 2.7188495842982925 -6.669240060813893 0 0 0 
	 294 30 4 3.691197802985268 4.4128285962368885 -6.130295038504953 0 0 0 
	 297 30 4 -0.09883873116865605 6.353940603291468 -5.565576306880932 0 0 0 
	 300 30 4 0.04560384468007239 2.246653505608135 -6.814787673898618 0 0 0 
	 301 31 1 -3.5332457918051943 -8.926010488423945 -7.519069417231419 0 0 0 
	 302 31 2 -3.6034858723306984 -9.790109243289464 -7.10675925130335 0 0 0 
	 303 31 2 -3.673725952856202 -10.654207998154982 -6.6944490853752825 0 0 0 
	 305 31 2 -2.752823631541263 -8.700204878255047 -8.030492019572407 0 0 0 
	 306 31 2 -1.972401471277333 -8.474399268086145 -8.541914621913397 0 0 0 
	 308 31 2 -4.243427871543622 -8.28771734372733 -7.419956980818499 0 0 0 
	 309 31 2 -4.953609951282048 -7.64942419903071 -7.3208445444055785 0 0 0 
	 304 31 3 -3.7146993331627454 -11.158265605159865 -6.45393482191724 0 0 0 
	 307 31 3 -1.5171552111233721 -8.342679328820953 -8.840244473278972 0 0 0 
	 310 31 3 -5.367882831129464 -7.277086531291019 -7.263028956498045 0 0 0 
	 311 32 1 -5.333253922656321 11.026132537503942 -5.072767847612297 0 0 0 
	 312 32 2 -4.4562964827862155 10.899071711373956 -5.442093171845059 0 0 0 
	 313 32 2 -3.579339042916107 10.772010885243972 -5.81141849607782 0 0 0 
	 315 32 2 -5.5374827201710675 10.693655814337529 -4.19564195766365 0 0 0 
	 316 32 2 -5.741711517685813 10.361179091171117 -3.3185160677150036 0 0 0 
	 318 32 2 -6.005982565011681 11.485670086800344 -5.580568413328181 0 0 0 
	 319 32 2 -6.678711207367043 11.945207636096743 -6.0883689790440645 0 0 0 
	 314 32 4 -3.067780536325214 10.69789207000148 -6.026858268546932 0 0 0 
	 317 32 4 -5.860844982902746 10.167234335990706 -2.806859298578293 0 0 0 
	 320 32 4 -7.071136248741003 12.213271206519645 -6.384585975711663 0 0 0 
	 321 33 1 -10.075120729695383 -3.304477105865611 -1.418664803944455 0 0 0 
	 322 33 2 -10.847859640049316 -3.7849348652129824 -1.7246630358150328 0 0 0 
	 323 33 2 -11.62059855040325 -4.265392624560354 -2.030661267685611 0 0 0 
	 325 33 2 -9.32769695976481 -3.7816986698915542 -1.0509457712967003 0 0 0 
	 326 33 2 -8.580273189834234 -4.258920233917498 -0.6832267386489459 0 0 0 
	 328 33 2 -10.049805589272024 -2.3467977824922963 -1.4803856047216315 0 0 0 
	 329 33 2 -10.024490448848667 -1.3891184591189818 -1.5421064054988078 0 0 0 
	 324 33 3 -12.071362914776376 -4.5456596508463205 -2.2091602362767815 0 0 0 
	 327 33 3 -8.144275990708067 -4.537299479599298 -0.4687239696044224 0 0 0 
	 330 33 3 -10.009723283601707 -0.8304721871512148 -1.578110205952161 0 0 0 
	 331 34 1 12.806041180177044 -9.203305228175157 -7.107841429215024 0 0 0 
	 332 34 2 12.840057909737068 -10.108315400060805 -7.4262742335765575 0 0 0 
	 333 34 2 12.87407463929709 -11.013325571946453 -7.744707037938091 0 0 0 
	 335 34 2 13.352595489783015 -8.934714117783063 -6.365724725407946 0 0 0 
	 336 34 2 13.899149799388985 -8.666123007390969 -5.623608021600868 0 0 0 
	 338 34 2 12.22547014101105 -8.566886166681604 -7.531525328660568 0 0 0 
	 339 34 2 11.644899101845056 -7.93046710518805 -7.955209228106113 0 0 0 
	 334 34 4 12.893917731540437 -11.54124817221308 -7.930459507148985 0 0 0 
	 337 34 4 14.217973146659135 -8.509444859662247 -5.19070661104674 0 0 0 
	 340 34 4 11.306232662331558 -7.559222652650144 -8.202358169449347 0 0 0 
	 341 35 1 3.427809519474426 -13.53358838927538 3.9828534386022763 0 0 0 
	 342 35 2 2.831577578042292 -14.036254455433347 4.542705470794124 0 0 0 
	 343 35 2 2.235345636610158 -14.538920521591313 5.102557502985973 0 0 0 
	 345 35 2 4.368099270825537 -13.517395951671697 4.175708276416931 0 0 0 
	 346 35 2 5.308389022176647 -13.501203514068012 4.368563114231586 0 0 0 
	 348 35 2 3.08375170955545 -13.047114760721097 3.230146568595773 0 0 0 
	 349 35 2 2.7396938996364737 -12.560641132166815 2.4774396985892695 0 0 0 
	 344 35 3 1.887543670774746 -14.832142393516794 5.429137855097885 0 0 0 
	 347 35 3 5.856891377131462 -13.491757925465864 4.481061769623468 0 0 0 
	 350 35 3 2.538993510517071 -12.276864848843482 2.0383606910854764 0 0 0 
	 351 36 1 7.708519917113036 7.505804639950195 -10.28314463646234 0 0 0 
	 352 36 2 7.182437454829109 8.192897666723706 -9.86752411791628 0 0 0 
	 353 36 2 6.6563549925451815 8.879990693497216 -9.45190359937022 0 0 0 
	 355 36 2 8.664674439145951 7.51566558500009 -10.197872766782304 0 0 0 
	 356 36 2 9.620828961178868 7.525526530049985 -10.112600897102267 0 0 0 
	 358 36 2 7.278447857364048 6.80885066812679 -10.784037024688438 0 0 0 
	 359 36 2 6.84837579761506 6.1118966963033845 -11.284929412914533 0 0 0 
	 354 36 4 6.349473556212891 9.280794959115099 -9.20945829688502 0 0 0 
	 357 36 4 10.178585765698068 7.531278747995757 -10.062858973122246 0 0 0 
	 360 36 4 6.59750042942815 5.705340212739731 -11.577116639379756 0 0 0 
	 361 37 1 -9.289850253703014 -7.323204863439102 -5.124339529070338 0 0 0 
	 362 37 2 -9.978143807788626 -7.968275619591886 -4.946194355235424 0 0 0 
	 363 37 2 -10.66643736187424 -8.613346375744669 -4.768049181400511 0 0 0 
	 365 37 2 -8.713154512087776 -7.02850083780686 -4.415698887504388 0 0 0 
	 366 37 2 -8.136458770472537 -6.733796812174618 -3.7070582459384385 0 0 0 
	 368 37 2 -9.178252441232639 -6.972838132918561 -6.011125344471201 0 0 0 
	 369 37 2 -9.066654628762265 -6.622471402398019 -6.897911159872063 0 0 0 
	 364 37 3 -11.067941935090847 -8.989637650167126 -4.664131163330144 0 0 0 
	 367 37 3 -7.800052921196981 -6.56188613055581 -3.293684538358301 0 0 0 
	 370 37 3 -9.001555904821213 -6.41809080959437 -7.415202885522566 0 0 0 
	 371 38 1 13.52121371222937 -9.10994967299356 4.983486348393979 0 0 0 
	 372 38 2 14.062741568728658 -9.898590390132574 4.903527609623604 0 0 0 
	 373 38 2 14.604269425227946 -10.687231107271588 4.8235688708532285 0 0 0 
	 375 38 2 12.924257140813305 -8.863543277808715 4.273185890661346 0 0 0 
	 376 38 2 12.327300569397242 -8.61713688262387 3.5628854329287143 0 0 0 
	 378 38 2 13.576642427146147 -8.567715351039391 5.773745544896985 0 0 0 
	 379 38 2 13.632071142062923 -8.025481029085224 6.564004741399993 0 0 0 
	 374 38 4 14.92016067485253 -11.147271525602678 4.7769262732371764 0 0 0 
	 377 38 4 11.97907590273787 -8.473399818766042 3.1485434992513452 0 0 0 
	 380 38 4 13.66440455909771 -7.709177674611959 7.0249892726934124 0 0 0 
	 381 39 1 -10.378791292929643 -7.119548282630939 5.831596879305245 0 0 0 
	 382 39 2 -9.484441444044975 -7.421261855426839 5.656361986116976 0 0 0 
	 383 39 2 -8.590091595160306 -7.72297542822274 5.481127092928707 0 0 0 
	 385 39 2 -10.53916856353115 -6.201529231220016 6.062074974405408 0 0 0 
	 386 39 2 -10.699545834132659 -5.2835101798090935 6.292553069505571 0 0 0 
	 388 39 2 -11.112763871212803 -7.735853761245961 5.776353677393351 0 0 0 
	 389 39 2 -11.846736449495964 -8.352159239860983 5.721110475481457 0 0 0 
	 384 39 3 -8.06838751664425 -7.898975012353682 5.378906738568883 0 0 0 
	 387 39 3 -10.793099241983539 -4.747999066486055 6.426998624980666 0 0 0 
	 390 39 3 -12.27488712016114 -8.71167076905308 5.688885274366186 0 0 0 
	 391 40 1 -0.6686157174465912 -0.10524664958316277 6.747866094590083 0 0 0 
	 392 40 2 -0.853676793052505 -0.4587485432167605 5.8747173045817345 0 0 0 
	 393 40 2 -1.0387378686584188 -0.8122504368503582 5.001568514573386 0 0 0 
	 395 40 2 0.23967621254302107 0.00484216278887406 7.038531234065492 0 0 0 
	 396 40 2 1.1479681425326334 0.11493097516091089 7.329196373540902 0 0 0 
	 398 40 2 -1.3918465718302895 0.13816643167839818 7.330349745123021 0 0 0 
	 399 40 2 -2.1150774262139875 0.3815795129399591 7.91283339565596 0 0 0 
	 394 40 4 -1.1466901627618684 -1.0184598748032903 4.49223172040185 0 0 0 