LAMMPS FENE chain data file 

2000  atoms          
1800  bonds          
1800  angles         
0  dihedrals      
0  impropers    

4  atom types     
2  bond types     
3  angle types    
0  dihedral types 
0  improper types 

-14.500000 14.500000 xlo xhi  
-14.500000 14.500000 ylo yhi  
-14.500000 14.500000 zlo zhi  

Masses

	 1 1.0 
	 2 1.0 
	 3 1.0 
	 4 1.0 

Atoms 

	 1 1 1 8.533151420048886 4.441387210340623 -7.5357529161872465 0 0 0 
	 2 1 2 9.393915505655658 4.761605326288408 -7.815298166814743 0 0 0 
	 3 1 2 10.254679591262429 5.081823442236193 -8.094843417442238 0 0 0 
	 5 1 2 8.421428148696839 4.068917918101206 -6.6580373945191695 0 0 0 
	 6 1 2 8.309704877344792 3.696448625861788 -5.7803218728510934 0 0 0 
	 8 1 2 7.784110605794163 4.493638386632255 -8.133923187227827 0 0 0 
	 9 1 2 7.035069791539439 4.545889562923887 -8.732093458268407 0 0 0 
	 4 1 3 10.756791974533044 5.268617343205735 -8.257911480308278 0 0 0 
	 7 1 3 8.244532969056097 3.479174872055461 -5.268321151878049 0 0 0 
	 10 1 3 6.598129316557517 4.576369415760672 -9.081026116375412 0 0 0 
	 11 2 1 9.799256978600244 -8.975951494979347 8.23785454233133 0 0 0 
	 12 2 2 9.742060972280191 -8.02002244268918 8.305146918189667 0 0 0 
	 13 2 2 9.68486496596014 -7.064093390399013 8.372439294048005 0 0 0 
	 15 2 2 9.757508573107213 -9.399933790083871 7.377566169704634 0 0 0 
	 16 2 2 9.71576016761418 -9.823916085188396 6.517277797077939 0 0 0 
	 18 2 2 9.898201390413329 -9.507898252164988 9.030850539099688 0 0 0 
	 19 2 2 9.997145802226413 -10.03984500935063 9.823846535868046 0 0 0 
	 14 2 4 9.65150062894011 -6.506468109896415 8.411693179965368 0 0 0 
	 17 2 4 9.691406931076578 -10.071239090666037 6.0154429130457 0 0 0 
	 20 2 4 10.054863375784045 -10.350147284375588 10.286427533982923 0 0 0 
	 21 3 1 -4.961077283967955 0.11847390194030105 -8.03278980033699 0 0 0 
	 22 3 2 -5.534888659753716 0.8743921587280788 -7.888124344633912 0 0 0 
	 23 3 2 -6.108700035539478 1.6303104155158565 -7.743458888930834 0 0 0 
	 25 3 2 -5.332980591475344 -0.7656220849553547 -8.073560081425804 0 0 0 
	 26 3 2 -5.704883898982734 -1.6497180718510105 -8.114330362514616 0 0 0 
	 28 3 2 -4.0153626006748055 0.24665163204817853 -8.136684974951256 0 0 0 
	 29 3 2 -3.069647917381655 0.374829362156056 -8.24058014956552 0 0 0 
	 24 3 3 -6.443423338081171 2.0712627319753936 -7.659070706437372 0 0 0 
	 27 3 3 -5.921827495028712 -2.165440730873476 -8.13811302648309 0 0 0 
	 30 3 3 -2.517981018793984 0.4495997047189848 -8.30118566809051 0 0 0 
	 31 4 1 10.912248204212109 -7.071378386266771 -11.657037436124002 0 0 0 
	 32 4 2 10.26991165175883 -6.670537186152164 -12.247232391772657 0 0 0 
	 33 4 2 9.627575099305552 -6.269695986037558 -12.837427347421315 0 0 0 
	 35 4 2 10.705439843349692 -7.896103420707969 -11.211325736206483 0 0 0 
	 36 4 2 10.498631482487276 -8.720828455149167 -10.765614036288964 0 0 0 
	 38 4 2 11.761393117527803 -6.647494551940179 -11.512554180392865 0 0 0 
	 39 4 2 12.610538030843497 -6.223610717613587 -11.368070924661726 0 0 0 
	 34 4 4 9.252878777041142 -6.03587195263737 -13.181707738216364 0 0 0 
	 37 4 4 10.3779932719842 -9.2019180585732 -10.50561554467041 0 0 0 
	 40 4 4 13.105872563610983 -5.9763451475897424 -11.283789025485229 0 0 0 
	 41 5 1 7.578552550065124 2.327231549169717 6.751887024144089 0 0 0 
	 42 5 2 7.25759275634357 3.115302233852753 7.196329828965394 0 0 0 
	 43 5 2 6.936632962622016 3.903372918535789 7.640772633786698 0 0 0 
	 45 5 2 8.066714935530976 2.405419711853152 5.928975062490549 0 0 0 
	 46 5 2 8.55487732099683 2.483607874536587 5.10606310083701 0 0 0 
	 48 5 2 7.411349958320826 1.4609727018032463 7.1303561809763245 0 0 0 
	 49 5 2 7.244147366576527 0.5947138544367756 7.50882533780856 0 0 0 
	 44 5 3 6.749406416284443 4.363080817934227 7.900030936599126 0 0 0 
	 47 5 3 8.839638712518576 2.529217636101924 4.626031123205778 0 0 0 
	 50 5 3 7.1466125213923535 0.08939619347300098 7.7295990126273635 0 0 0 
	 51 6 1 9.963313308302377 11.713456274272076 11.106089490432048 0 0 0 
	 52 6 2 10.086820254582484 12.403071980179394 11.762424932402473 0 0 0 
	 53 6 2 10.210327200862594 13.092687686086713 12.418760374372898 0 0 0 
	 55 6 2 10.350066949582446 10.845561939642339 11.243133442776598 0 0 0 
	 56 6 2 10.736820590862516 9.977667605012604 11.380177395121148 0 0 0 
	 58 6 2 9.4530527207422 11.891734902994493 10.312710096117073 0 0 0 
	 59 6 2 8.942792133182023 12.07001353171691 9.519330701802096 0 0 0 
	 54 6 4 10.282372919525988 13.49496351453265 12.801622715522313 0 0 0 
	 57 6 4 10.962426881609222 9.471395909811925 11.46011970065547 0 0 0 
	 60 6 4 8.64514012377192 12.174009398471654 9.056526055118361 0 0 0 
	 61 7 1 1.957745002687537 -12.780579161719723 -8.533914792913048 0 0 0 
	 62 7 2 2.427428782091679 -12.527562298053335 -9.332024819203324 0 0 0 
	 63 7 2 2.8971125614958213 -12.274545434386944 -10.1301348454936 0 0 0 
	 65 7 2 1.0960888538030473 -13.199209211214853 -8.59634525622429 0 0 0 
	 66 7 2 0.23443270491855794 -13.617839260709982 -8.65877571953553 0 0 0 
	 68 7 2 2.3497173721678837 -12.614965975890984 -7.673374303311532 0 0 0 
	 69 7 2 2.741689741648231 -12.449352790062242 -6.812833813710015 0 0 0 
	 64 7 3 3.1710947661482374 -12.126952263914884 -10.595699027496261 0 0 0 
	 67 7 3 -0.2682000485973939 -13.862040122915474 -8.69519348980042 0 0 0 
	 70 7 3 2.970340290511767 -12.35274509832881 -6.3108518614424645 0 0 0 
	 71 8 1 -9.026207903433242 -9.628299563601155 -6.031447170157994 0 0 0 
	 72 8 2 -8.49707835639132 -10.241062477771564 -6.547338179446389 0 0 0 
	 73 8 2 -7.9679488093494 -10.853825391941973 -7.063229188734785 0 0 0 
	 75 8 2 -8.597518547110836 -8.990740223499156 -5.455822706097802 0 0 0 
	 76 8 2 -8.168829190788427 -8.353180883397158 -4.880198242037609 0 0 0 
	 78 8 2 -9.984026806797571 -9.653095989532744 -6.091180624929792 0 0 0 
	 79 8 2 -10.9418457101619 -9.677892415464333 -6.1509140797015895 0 0 0 
	 74 8 4 -7.6592899069082785 -11.211270425208046 -7.364165610819682 0 0 0 
	 77 8 4 -7.918760399600357 -7.981271268337659 -4.544417304669163 0 0 0 
	 80 8 4 -11.50057340379109 -9.692356997257761 -6.1857585949851375 0 0 0 
	 81 9 1 -6.807423752835988 -10.702829103537459 9.98727663508649 0 0 0 
	 82 9 2 -6.317575959353027 -11.107267702335944 9.267499892601858 0 0 0 
	 83 9 2 -5.827728165870065 -11.511706301134433 8.547723150117227 0 0 0 
	 85 9 2 -6.487444535983395 -10.780747396587104 10.88902052355518 0 0 0 
	 86 9 2 -6.167465319130799 -10.858665689636748 11.790764412023869 0 0 0 
	 88 9 2 -7.617250763171546 -10.220472211689327 9.805309489102434 0 0 0 
	 89 9 2 -8.427077773507103 -9.73811531984119 9.623342343118377 0 0 0 
	 84 9 3 -5.54198361967167 -11.747628817100217 8.127853383667857 0 0 0 
	 87 9 3 -5.980810775966786 -10.904118027249043 12.316781680297266 0 0 0 
	 90 9 3 -8.899476862869511 -9.456740466263115 9.517194841294348 0 0 0 
	 91 10 1 -8.378161349544268 11.563358026063883 0.3703704803236493 0 0 0 
	 92 10 2 -7.473758925331585 11.459427406211718 0.06564981916762053 0 0 0 
	 93 10 2 -6.569356501118902 11.355496786359554 -0.23907084198840822 0 0 0 
	 95 10 2 -9.06507460905158 10.977735582267387 0.043573100843854684 0 0 0 
	 96 10 2 -9.751987868558892 10.392113138470894 -0.2832242786359399 0 0 0 
	 98 10 2 -8.595650514249638 12.25291108971254 1.0018885209594723 0 0 0 
	 99 10 2 -8.81313967895501 12.9424641533612 1.6334065615952955 0 0 0 
	 94 10 4 -6.04178842032817 11.294870591445793 -0.4168245609960918 0 0 0 
	 97 10 4 -10.152687269938157 10.050500046256271 -0.4738560833324865 0 0 0 
	 100 10 4 -8.940008358366475 13.344703440489583 2.0017920852995252 0 0 0 
	 101 11 1 0.16359265270529944 7.11248848249823 -4.640849498251255 0 0 0 
	 102 11 2 0.6398493643239962 7.92270126658253 -4.4450567784057196 0 0 0 
	 103 11 2 1.1161060759426928 8.732914050666832 -4.249264058560184 0 0 0 
	 105 11 2 -0.0732128605204081 6.9019347780498395 -5.547044999480967 0 0 0 
	 106 11 2 -0.3100183737461156 6.691381073601449 -6.453240500710679 0 0 0 
	 108 11 2 -0.07585854568768968 6.5128294028623195 -3.9304467168670785 0 0 0 
	 109 11 2 -0.3153097440806788 5.913170323226409 -3.220043935482902 0 0 0 
	 104 11 3 1.3939224910535994 9.205538174716006 -4.135051638650289 0 0 0 
	 107 11 3 -0.4481549231277785 6.568558079339888 -6.981854543094677 0 0 0 
	 110 11 3 -0.45498960980992287 5.563369193438795 -2.8056423130087986 0 0 0 
	 111 12 1 -12.186450923106548 10.999703533146661 -3.0847285879344173 0 0 0 
	 112 12 2 -12.428879114845692 10.206472970827058 -2.601392424532367 0 0 0 
	 113 12 2 -12.671307306584838 9.413242408507454 -2.118056261130317 0 0 0 
	 115 12 2 -12.866815439297243 11.538523132869436 -3.4950669410811708 0 0 0 
	 116 12 2 -13.54717995548794 12.07734273259221 -3.9054052942279247 0 0 0 
	 118 12 2 -11.263658215176708 11.25411449574349 -3.157726398189714 0 0 0 
	 119 12 2 -10.34086550724687 11.508525458340321 -3.23072420844501 0 0 0 
	 114 12 4 -12.812723751766006 8.950524580487684 -1.8361101658124546 0 0 0 
	 117 12 4 -13.944059256599179 12.391654165763828 -4.144769333563531 0 0 0 
	 120 12 4 -9.802569760954462 11.656931853188471 -3.2733062644272666 0 0 0 
	 121 13 1 0.8319379788477318 11.61918702342338 -0.7081907427345489 0 0 0 
	 122 13 2 -0.017248644000799174 11.81459683735152 -0.30532962001894476 0 0 0 
	 123 13 2 -0.8664352668493301 12.010006651279657 0.09753150269665933 0 0 0 
	 125 13 2 0.9427697273520452 11.701321140604948 -1.6582277474445133 0 0 0 
	 126 13 2 1.0536014758563588 11.783455257786516 -2.6082647521544775 0 0 0 
	 128 13 2 1.570292853191949 11.341643092313674 -0.16101486074018911 0 0 0 
	 129 13 2 2.308647727536166 11.06409916120397 0.3861610212541706 0 0 0 
	 124 13 3 -1.3617941301776395 12.123995709404404 0.3325338242807623 0 0 0 
	 127 13 3 1.1182533291505417 11.83136682614243 -3.1624530049019564 0 0 0 
	 130 13 3 2.739354737570293 10.902198534723308 0.7053469524175471 0 0 0 
	 131 14 1 -8.504094496229337 2.6492066899718756 -2.8550089446825666 0 0 0 
	 132 14 2 -8.969455840338822 3.1927279542940683 -2.2149906210087695 0 0 0 
	 133 14 2 -9.43481718444831 3.7362492186162606 -1.5749722973349725 0 0 0 
	 135 14 2 -8.457048309587552 2.9235583691136267 -3.773767788163579 0 0 0 
	 136 14 2 -8.41000212294577 3.1979100482553777 -4.692526631644592 0 0 0 
	 138 14 2 -8.085779338761634 1.8313337465079325 -2.5762684248753516 0 0 0 
	 139 14 2 -7.667464181293933 1.0134608030439893 -2.2975279050681365 0 0 0 
	 134 14 4 -9.706277968512175 4.053303289470873 -1.2016282751919243 0 0 0 
	 137 14 4 -8.382558514071395 3.3579485277547323 -5.228469290341849 0 0 0 
	 140 14 4 -7.42344700610444 0.5363682526900222 -2.134929268513927 0 0 0 
	 141 15 1 1.4290582126428988 3.842949372911704 -11.49157039861369 0 0 0 
	 142 15 2 1.1415481232740232 4.350904782851799 -10.729389809761093 0 0 0 
	 143 15 2 0.8540380339051477 4.8588601927918935 -9.967209220908497 0 0 0 
	 145 15 2 0.9778593931798221 3.027840251182041 -11.723123297512025 0 0 0 
	 146 15 2 0.5266605737167454 2.212731129452377 -11.95467619641036 0 0 0 
	 148 15 2 2.167767121474851 4.150103084701273 -12.022198088567954 0 0 0 
	 149 15 2 2.906476030306803 4.457256796490841 -12.552825778522216 0 0 0 
	 144 15 3 0.6863238151066369 5.155167515256949 -9.522603877411148 0 0 0 
	 147 15 3 0.26346126236328393 1.7372508084434068 -12.089748720767721 0 0 0 
	 150 15 3 3.3373895604587753 4.636429795034757 -12.862358597662203 0 0 0 
	 151 16 1 -1.750541946951727 10.164614395309076 -6.661478890821964 0 0 0 
	 152 16 2 -1.6999074897654616 10.9882057272165 -7.152124862732883 0 0 0 
	 153 16 2 -1.6492730325791964 11.811797059123922 -7.6427708346438 0 0 0 
	 155 16 2 -2.440944324315497 10.037681531841192 -6.006625773319803 0 0 0 
	 156 16 2 -3.1313467016792664 9.910748668373312 -5.351772655817643 0 0 0 
	 158 16 2 -1.1107740267742225 9.467955926869536 -6.825686036413206 0 0 0 
	 159 16 2 -0.47100610659671827 8.771297458429997 -6.989893182004449 0 0 0 
	 154 16 4 -1.6197362658872083 12.292225336069919 -7.928980984925169 0 0 0 
	 157 16 4 -3.534081421808133 9.836704498017047 -4.9697750039413835 0 0 0 
	 160 16 4 -0.09780815315984048 8.364913351840263 -7.08568068359934 0 0 0 
	 161 17 1 11.329163257911024 6.644533749712697 -6.115795134477625 0 0 0 
	 162 17 2 11.46215922184462 6.626117114697345 -5.165230617397335 0 0 0 
	 163 17 2 11.595155185778218 6.607700479681991 -4.214666100317045 0 0 0 
	 165 17 2 12.006533923578795 6.299409738575848 -6.702018980998399 0 0 0 
	 166 17 2 12.683904589246568 5.954285727439 -7.2882428275191735 0 0 0 
	 168 17 2 10.518796628309655 7.008074395864899 -6.480135805037141 0 0 0 
	 169 17 2 9.708429998708286 7.3716150420171 -6.8444764755966565 0 0 0 
	 164 17 3 11.672736164739483 6.596957442589702 -3.6601701320202094 0 0 0 
	 167 17 3 13.079037477552767 5.752963387609172 -7.630206737989624 0 0 0 
	 170 17 3 9.235716131440821 7.583680418939218 -7.057008533423041 0 0 0 
	 171 18 1 1.6699893010661593 9.463501533243782 7.755537817469517 0 0 0 
	 172 18 2 0.718141538277919 9.564306256328958 7.681888348505085 0 0 0 
	 173 18 2 -0.2337062245103212 9.665110979414134 7.608238879540653 0 0 0 
	 175 18 2 2.1136560558898525 8.746389926327632 7.296723308228202 0 0 0 
	 176 18 2 2.557322810713546 8.02927831941148 6.837908798986888 0 0 0 
	 178 18 2 2.178170309030706 10.079808417074757 8.288001795675264 0 0 0 
	 179 18 2 2.6863513169952533 10.696115300905731 8.820465773881011 0 0 0 
	 174 18 4 -0.7889507528034616 9.723913734547153 7.5652766893114 0 0 0 
	 177 18 4 2.816128417694034 7.61096321537706 6.570267001929454 0 0 0 
	 180 18 4 2.9827902383079055 11.055627649807134 9.131069761167698 0 0 0 
	 181 19 1 -11.315407546506622 6.031904628611819 -1.5327745692902717 0 0 0 
	 182 19 2 -11.904835506163387 6.564382078060958 -0.993661922246073 0 0 0 
	 183 19 2 -12.494263465820152 7.096859527510096 -0.45454927520187427 0 0 0 
	 185 19 2 -11.207783495939035 5.096440841766291 -1.3458934112243781 0 0 0 
	 186 19 2 -11.100159445371448 4.160977054920762 -1.1590122531584846 0 0 0 
	 188 19 2 -10.833603637417443 6.434890966008209 -2.258768374400364 0 0 0 
	 189 19 2 -10.351799728328265 6.837877303404598 -2.984762179510456 0 0 0 
	 184 19 3 -12.838096442286599 7.407471373022094 -0.1400668977594246 0 0 0 
	 187 19 3 -11.037378749207022 3.6152898459275375 -1.0499982442867135 0 0 0 
	 190 19 3 -10.070747448026244 7.072952666885826 -3.4082585658246765 0 0 0 
	 191 20 1 5.83181732356636 5.9587621342469825 8.799806663952143 0 0 0 
	 192 20 2 5.238360218025252 5.219946971974881 8.646311322395409 0 0 0 
	 193 20 2 4.644903112484144 4.48113180970278 8.492815980838675 0 0 0 
	 195 20 2 6.711565679194278 5.8028392760007605 9.150991648036463 0 0 0 
	 196 20 2 7.5913140348221955 5.646916417754538 9.502176632120783 0 0 0 
	 198 20 2 5.545526073479552 6.853500154765306 8.602117021424558 0 0 0 
	 199 20 2 5.259234823392743 7.748238175283629 8.404427378896973 0 0 0 
	 194 20 4 4.298719800918497 4.050156298377387 8.403277031597247 0 0 0 
	 197 20 4 8.104500575605147 5.555961417110908 9.707034539503303 0 0 0 
	 200 20 4 5.092231594175438 8.270168687252651 8.28910842075588 0 0 0 
	 201 21 1 -3.3809005086102766 -5.560357460269367 -11.468120053436616 0 0 0 
	 202 21 2 -4.123729385190787 -5.700077472304644 -12.059967650673437 0 0 0 
	 203 21 2 -4.8665582617712975 -5.839797484339921 -12.65181524791026 0 0 0 
	 205 21 2 -3.5225240457060685 -5.1637740835529815 -10.60541245578101 0 0 0 
	 206 21 2 -3.6641475828018604 -4.767190706836596 -9.742704858125405 0 0 0 
	 208 21 2 -2.496448094933975 -5.817220824950477 -11.7389800538554 0 0 0 
	 209 21 2 -1.611995681257673 -6.074084189631585 -12.009840054274182 0 0 0 
	 204 21 3 -5.299875106443261 -5.921300824693832 -12.99705967963174 0 0 0 
	 207 21 3 -3.7467613127744057 -4.535850403752037 -9.239458759492969 0 0 0 
	 210 21 3 -1.0960651066131635 -6.223921152362232 -12.16784172118514 0 0 0 
	 211 22 1 -3.599346286182381 12.364010958776387 -0.37071728102443247 0 0 0 
	 212 22 2 -4.50838828380845 12.530318164958464 -0.11074697555875268 0 0 0 
	 213 22 2 -5.417430281434518 12.69662537114054 0.1492233299069271 0 0 0 
	 215 22 2 -2.9408759791876156 13.057214606483768 -0.2841981639958805 0 0 0 
	 216 22 2 -2.2824056721928496 13.75041825419115 -0.19767904696732852 0 0 0 
	 218 22 2 -3.348774595551078 11.50450010488693 -0.717206703518664 0 0 0 
	 219 22 2 -3.098202904919775 10.644989250997472 -1.0636961260128956 0 0 0 
	 214 22 4 -5.947704780049725 12.793637908080084 0.30087267476190693 0 0 0 
	 217 22 4 -1.89829799311257 14.15478704868712 -0.1472095620340067 0 0 0 
	 220 22 4 -2.952036085384848 10.143607919561955 -1.2658149558011973 0 0 0 
	 221 23 1 5.190747881381881 0.034258905497019376 -4.567363993011691 0 0 0 
	 222 23 2 4.660560413860415 0.3160098967146103 -5.3164418449276845 0 0 0 
	 223 23 2 4.130372946338949 0.5977608879322013 -6.065519696843678 0 0 0 
	 225 23 2 6.0314915512775205 0.46102627579459227 -4.386754765175162 0 0 0 
	 226 23 2 6.87223522117316 0.8877936460921652 -4.206145537338633 0 0 0 
	 228 23 2 4.880191679007709 -0.6742594560181442 -3.998895368932226 0 0 0 
	 229 23 2 4.569635476633537 -1.3827778175333076 -3.4304267448527614 0 0 0 
	 224 23 3 3.8210969236180934 0.7621156328091291 -6.502481777128008 0 0 0 
	 227 23 3 7.362669028612282 1.1367412787657494 -4.100790154433992 0 0 0 
	 230 23 3 4.388477691915269 -1.7960801950838197 -3.098820047473074 0 0 0 
	 231 24 1 12.189424363453359 -3.0089532390223805 -6.973313684976719 0 0 0 
	 232 24 2 12.56422415783341 -3.8633612537073274 -6.747233923443762 0 0 0 
	 233 24 2 12.939023952213462 -4.717769268392274 -6.521154161910805 0 0 0 
	 235 24 2 11.910867783289756 -2.830274967886851 -7.874468670021787 0 0 0 
	 236 24 2 11.632311203126152 -2.6515966967513216 -8.775623655066855 0 0 0 
	 238 24 2 12.09318114923691 -2.3332234954729634 -6.298238461464608 0 0 0 
	 239 24 2 11.996937935020462 -1.657493751923546 -5.6231632379524985 0 0 0 
	 234 24 4 13.157657165601826 -5.21617394362516 -6.38927430101658 0 0 0 
	 237 24 4 11.469819864697383 -2.547367705255596 -9.301297396343145 0 0 0 
	 240 24 4 11.940796060060867 -1.263318068186386 -5.229369357570434 0 0 0 
	 241 25 1 -12.205588977672884 -8.23550223144759 1.7176159779522902 0 0 0 
	 242 25 2 -11.926150786642228 -7.330702899004397 1.559969330655657 0 0 0 
	 243 25 2 -11.646712595611575 -6.425903566561207 1.4023226833590232 0 0 0 
	 245 25 2 -11.650414530960663 -8.965621688701942 1.4342312362028662 0 0 0 
	 246 25 2 -11.095240084248442 -9.695741145956298 1.1508464944534453 0 0 0 
	 248 25 2 -13.040201615415757 -8.41018210663643 2.158647366998345 0 0 0 
	 249 25 2 -13.87481425315863 -8.584861981825266 2.599678756044399 0 0 0 
	 244 25 3 -11.483706984177026 -5.898103955969344 1.3103621391026543 0 0 0 
	 247 25 3 -10.771388323666311 -10.121644162688005 0.9855387284329469 0 0 0 
	 250 25 3 -14.361671625175306 -8.68675857568542 2.8569470663212657 0 0 0 
	 251 26 1 -4.173830167001324 6.5484581399757875 5.9783551145493 0 0 0 
	 252 26 2 -4.945068112931098 6.06721919877317 6.286901889331028 0 0 0 
	 253 26 2 -5.716306058860873 5.5859802575705535 6.595448664112755 0 0 0 
	 255 26 2 -3.3502232599975823 6.500820346079092 6.469274968831429 0 0 0 
	 256 26 2 -2.526616352993841 6.453182552182395 6.960194823113557 0 0 0 
	 258 26 2 -4.22619912807529 7.077334875075101 5.178888485485445 0 0 0 
	 259 26 2 -4.278568089149257 7.606211610174414 4.37942185642159 0 0 0 
	 254 26 4 -6.166194860653241 5.305257541869027 6.7754342827354295 0 0 0 
	 257 26 4 -2.046178990574992 6.425393839075989 7.246564738111465 0 0 0 
	 260 26 4 -4.309116649775738 7.914723038982347 3.9130663228010083 0 0 0 
	 261 27 1 11.99530077478918 -2.0917059238861957 -0.9116899781947609 0 0 0 
	 262 27 2 12.800303005248027 -2.558791305969335 -0.6763122927602012 0 0 0 
	 263 27 2 13.605305235706872 -3.0258766880524743 -0.4409346073256414 0 0 0 
	 265 27 2 11.627387194820598 -2.183670761657204 -1.793609513236622 0 0 0 
	 266 27 2 11.259473614852014 -2.2756355994282123 -2.6755290482784835 0 0 0 
	 268 27 2 11.558212124298919 -1.5326557040320483 -0.26514812858745973 0 0 0 
	 269 27 2 11.121123473808655 -0.9736054841779007 0.3813937210198415 0 0 0 
	 264 27 3 14.074889870141199 -3.298343160934306 -0.30363095748881486 0 0 0 
	 267 27 3 11.04485735987034 -2.329281754794634 -3.189982110386236 0 0 0 
	 270 27 3 10.866155094356003 -0.647492855929648 0.7585431332907671 0 0 0 
	 271 28 1 5.732262578939332 6.448989822542265 -11.894758389761346 0 0 0 
	 272 28 2 4.828440673864821 6.765287668695843 -11.826482212172907 0 0 0 
	 273 28 2 3.9246187687903102 7.081585514849422 -11.758206034584468 0 0 0 
	 275 28 2 6.2218165459340184 6.219784340016803 -11.101409941612593 0 0 0 
	 276 28 2 6.7113705129287045 5.99057885749134 -10.308061493463839 0 0 0 
	 278 28 2 6.146530517019158 6.3618974589141475 -12.756383015498539 0 0 0 
	 279 28 2 6.5607984550989835 6.27480509528603 -13.618007641235732 0 0 0 
	 274 28 4 3.397389324163512 7.266092591772344 -11.718378264324546 0 0 0 
	 277 28 4 6.9969436603422706 5.856875659351488 -9.845274898710398 0 0 0 
	 280 28 4 6.802454752312215 6.224001216502963 -14.120622006249095 0 0 0 
	 281 29 1 -5.441929673111063 6.632793038226346 -12.06392113586234 0 0 0 
	 282 29 2 -5.700440208821531 5.816676679662807 -12.498347645426012 0 0 0 
	 283 29 2 -5.958950744532 5.000560321099268 -12.932774154989685 0 0 0 
	 285 29 2 -5.463466733816548 7.46173378264368 -12.547649775970617 0 0 0 
	 286 29 2 -5.485003794522034 8.290674527061014 -13.031378416078896 0 0 0 
	 288 29 2 -5.161882076695109 6.619968652372551 -11.14576598619039 0 0 0 
	 289 29 2 -4.881834480279156 6.607144266518755 -10.227610836518442 0 0 0 
	 284 29 3 -6.109748557029773 4.524492445270536 -13.186189618901826 0 0 0 
	 287 29 3 -5.497567079933567 8.774223294637792 -13.313553456142058 0 0 0 
	 290 29 3 -4.718473382369849 6.599663374770708 -9.692020332543139 0 0 0 
	 291 30 1 -2.2370071800872227 5.898268388787672 10.99933617902294 0 0 0 
	 292 30 2 -2.255529436872064 6.84803766646724 11.137883085085939 0 0 0 
	 293 30 2 -2.2740516936569053 7.797806944146808 11.276429991148934 0 0 0 
	 295 30 2 -1.5696006345421922 5.50925374968889 10.42939222254082 0 0 0 
	 296 30 2 -0.9021940889971618 5.120239110590106 9.859448266058699 0 0 0 
	 298 30 2 -2.885891468847408 5.33751375020689 11.430733229442065 0 0 0 
	 299 30 2 -3.534775757607596 4.776759111626107 11.862130279861187 0 0 0 
	 294 30 4 -2.2848563434480638 8.351839022793223 11.357249019685682 0 0 0 
	 297 30 4 -0.512873604095895 4.89331390444915 9.526980958110796 0 0 0 
	 300 30 4 -3.9132915927177048 4.449652239120647 12.113778559272344 0 0 0 
	 301 31 1 5.520781667185394 -8.56164773959532 1.2467192588609817 0 0 0 
	 302 31 2 4.89779537059364 -8.226978941588152 1.8959379199446929 0 0 0 
	 303 31 2 4.274809074001885 -7.892310143580982 2.545156581028404 0 0 0 
	 305 31 2 6.458360780240516 -8.378946478831171 1.3424566918637675 0 0 0 
	 306 31 2 7.395939893295637 -8.196245218067023 1.4381941248665533 0 0 0 
	 308 31 2 5.206188850722029 -9.079017798366639 0.5017631647744848 0 0 0 
	 309 31 2 4.891596034258662 -9.596387857137957 -0.24319292931201208 0 0 0 
	 304 31 3 3.9114004009900274 -7.6970866780768 2.9238674666605693 0 0 0 
	 307 31 3 7.942861042577791 -8.08966948262127 1.4940409607848448 0 0 0 
	 310 31 3 4.708083557988365 -9.898187058087892 -0.6777506508624684 0 0 0 
	 311 32 1 11.094642911626092 6.060421657431953 0.12148248764522807 0 0 0 
	 312 32 2 11.435670744403643 5.212426574192494 -0.17212329580045027 0 0 0 
	 313 32 2 11.776698577181193 4.364431490953036 -0.4657290792461286 0 0 0 
	 315 32 2 11.395922454593858 6.437691544904357 0.951240325207305 0 0 0 
	 316 32 2 11.697201997561624 6.814961432376761 1.7809981627693818 0 0 0 
	 318 32 2 10.452335535880776 6.531146853199008 -0.41466956647117015 0 0 0 
	 319 32 2 9.81002816013546 7.001872048966063 -0.9508216205875684 0 0 0 
	 314 32 4 11.975631479634766 3.869767692396685 -0.6369991195894409 0 0 0 
	 317 32 4 11.872948397626153 7.03503553340233 2.265023568013927 0 0 0 
	 320 32 4 9.43534885761736 7.276461746496844 -1.2635769854888004 0 0 0 
	 321 33 1 -9.837203936971411 -10.738490263671482 10.274984920342568 0 0 0 
	 322 33 2 -10.257486110592868 -9.920474232779902 10.550325922992753 0 0 0 
	 323 33 2 -10.677768284214327 -9.102458201888322 10.825666925642938 0 0 0 
	 325 33 2 -9.522416738040251 -11.361812004967053 10.933755765339013 0 0 0 
	 326 33 2 -9.207629539109089 -11.985133746262626 11.592526610335458 0 0 0 
	 328 33 2 -9.731708962281115 -10.93318455326749 9.340873072695938 0 0 0 
	 329 33 2 -9.626213987590818 -11.127878842863497 8.40676122504931 0 0 0 
	 324 33 3 -10.92293288549351 -8.625282183868233 10.986282510522212 0 0 0 
	 327 33 3 -9.024003673065911 -12.34873809535171 11.97680960325005 0 0 0 
	 330 33 3 -9.56467525235481 -11.241450511794502 7.8618626472554425 0 0 0 
	 331 34 1 1.9208690495204401 -9.64486887733639 7.797556510037987 0 0 0 
	 332 34 2 1.4046911499562476 -8.864681520077024 8.013121033033178 0 0 0 
	 333 34 2 0.8885132503920552 -8.08449416281766 8.22868555602837 0 0 0 
	 335 34 2 1.5802335784322254 -10.287838274700437 7.171331446750174 0 0 0 
	 336 34 2 1.2395981073440108 -10.930807672064484 6.545106383462361 0 0 0 
	 338 34 2 2.7776824201728467 -9.782086837231711 8.208217050330608 0 0 0 
	 339 34 2 3.6344957908252535 -9.919304797127031 8.61887759062323 0 0 0 
	 334 34 4 0.5874094756462764 -7.629384871083028 8.354431527775564 0 0 0 
	 337 34 4 1.0408940825425526 -11.305873153860178 6.179808429877804 0 0 0 
	 340 34 4 4.1343035903724905 -9.999348607065969 8.858429572460592 0 0 0 
	 341 35 1 0.6429101927567293 -9.867632476709794 -9.743020533483447 0 0 0 
	 342 35 2 1.1867929557219568 -9.434489462998478 -10.404971188609938 0 0 0 
	 343 35 2 1.7306757186871806 -9.001346449287158 -11.066921843736429 0 0 0 
	 345 35 2 1.0103750917103969 -10.075128899049915 -8.880747500881233 0 0 0 
	 346 35 2 1.3778399906640653 -10.282625321390034 -8.018474468279017 0 0 0 
	 348 35 2 -0.2684374691621638 -10.093279068080989 -9.943342910959174 0 0 0 
	 349 35 2 -1.1797851310810556 -10.31892565945219 -10.143665288434898 0 0 0 
	 344 35 3 2.0479406637502287 -8.748679691288894 -11.453059725893548 0 0 0 
	 347 35 3 1.5921945150537051 -10.403664901088437 -7.515481865927726 0 0 0 
	 350 35 3 -1.7114046005337453 -10.450552837752051 -10.26052000862907 0 0 0 
	 351 36 1 -5.482275530219903 8.987958347949212 -9.984801305582778 0 0 0 
	 352 36 2 -6.074744481222092 8.451708962292779 -9.45280775441748 0 0 0 
	 353 36 2 -6.6672134322242815 7.915459576636348 -8.920814203252181 0 0 0 
	 355 36 2 -4.535515476524006 8.832155713078945 -9.953641400364301 0 0 0 
	 356 36 2 -3.588755422828109 8.676353078208681 -9.922481495145824 0 0 0 
	 358 36 2 -5.836566632913611 9.680010368475909 -10.547954761966553 0 0 0 
	 359 36 2 -6.1908577356073184 10.372062389002608 -11.111108218350328 0 0 0 
	 354 36 4 -7.012820320308892 7.602647435003429 -8.61048463173909 0 0 0 
	 357 36 4 -3.0364787248388354 8.585468207867692 -9.904304883768381 0 0 0 
	 360 36 4 -6.397527545511981 10.775759400976513 -11.439614401240862 0 0 0 
	 361 37 1 -9.83187326589042 -2.4055079596196176 -10.02617438222034 0 0 0 
	 362 37 2 -9.805059205386069 -2.030060424331377 -9.143043500411052 0 0 0 
	 363 37 2 -9.778245144881712 -1.6546128890431353 -8.259912618601762 0 0 0 
	 365 37 2 -9.795083119664103 -1.8300651680797104 -10.793710751915878 0 0 0 
	 366 37 2 -9.758292973437786 -1.2546223765398032 -11.561247121611416 0 0 0 
	 368 37 2 -9.89547747262109 -3.356398286447768 -10.141768894334096 0 0 0 
	 369 37 2 -9.959081679351762 -4.307288613275918 -10.257363406447844 0 0 0 
	 364 37 3 -9.762603609587506 -1.4356018267916602 -7.744752937546343 0 0 0 
	 367 37 3 -9.736832054805769 -0.9189474148081915 -12.008976670600477 0 0 0 
	 370 37 3 -9.996184133277985 -4.861974637259005 -10.3247935385142 0 0 0 
	 371 38 1 -1.0409891850493258 -8.332708721504764 0.39248714257520156 0 0 0 
	 372 38 2 -1.0450926271725602 -9.162581952136893 0.8750776344447916 0 0 0 
	 373 38 2 -1.0491960692957947 -9.992455182769024 1.3576681263143815 0 0 0 
	 375 38 2 -1.443408923021479 -7.551133833246045 0.7782319397323296 0 0 0 
	 376 38 2 -1.8458286609936323 -6.769558944987325 1.1639767368894578 0 0 0 
	 378 38 2 -0.6344660049539381 -8.284410379131353 -0.4758481464515164 0 0 0 
	 379 38 2 -0.22794282485855055 -8.236112036757941 -1.3441834354782345 0 0 0 
	 374 38 4 -1.0515897438676816 -10.476547900637765 1.6391792465716426 0 0 0 
	 377 38 4 -2.080573508144055 -6.3136402601697394 1.388994535231116 0 0 0 
	 380 38 4 0.009195696863758762 -8.207938003706786 -1.850712354077153 0 0 0 
	 381 39 1 8.958755689483128 -5.50415520277248 3.2393461501452725 0 0 0 
	 382 39 2 8.560939811699425 -4.870297587145175 3.8406506075497147 0 0 0 
	 383 39 2 8.163123933915726 -4.2364399715178696 4.441955064954157 0 0 0 
	 385 39 2 8.433259622570073 -6.225619233470731 2.8858726206306207 0 0 0 
	 386 39 2 7.907763555657021 -6.947083264168983 2.5323990911159715 0 0 0 
	 388 39 2 9.882067634179881 -5.416548787701533 2.9915152222554813 0 0 0 
	 389 39 2 10.805379578876634 -5.3289423726305865 2.74368429436569 0 0 0 
	 384 39 3 7.931064671875231 -3.8666896957352748 4.792715998440083 0 0 0 
	 387 39 3 7.601224183291074 -7.367937282076296 2.3262061988990905 0 0 0 
	 390 39 3 11.343978213283073 -5.277838630505869 2.5991162530966445 0 0 0 
	 391 40 1 4.603717124323055 -6.240531048187768 4.4184958754325985 0 0 0 
	 392 40 2 4.927109563928496 -5.380561427624524 4.140162295506726 0 0 0 
	 393 40 2 5.250502003533937 -4.520591807061281 3.861828715580853 0 0 0 
	 395 40 2 3.6596627588613737 -6.395685677227393 4.497795283629131 0 0 0 
	 396 40 2 2.7156083933996933 -6.550840306267016 4.577094691825664 0 0 0 
	 398 40 2 5.2243790501792935 -6.945346039711388 4.617530047161939 0 0 0 
	 399 40 2 5.845040976035532 -7.650161031235006 4.816564218891279 0 0 0 
	 394 40 4 5.439147593303777 -4.0189428617327225 3.6994674606240934 0 0 0 
	 397 40 4 2.1649100135470465 -6.641347173206797 4.623352679940308 0 0 0 