Y:1,2,3 L:4,5,6,7,8   
1=central, 2=beads, 3=patches   
4=patches, 5,6,7,8=beads 

128  atoms          
112  bonds          
104  angles         
0  dihedrals      
0  impropers    

4  atom types     
2  bond types     
4  angle types    
0  dihedral types 
0  improper types 

-10.000000 10.000000 xlo xhi  
-10.000000 10.000000 ylo yhi  
-10.000000 10.000000 zlo zhi  

Masses

	 1 1.0 
	 2 1.0 
	 3 1.0 
	 4 1.0 

Atoms 

	 1 1 1 -6.372118843926218 -7.350669402158612 -3.9329723015585483 0 0 0 
	 2 1 2 -6.921806537336662 -7.0084277981077046 -3.224231076449011 0 0 0 
	 3 1 2 -7.471494230747107 -6.666186194056797 -2.515489851339474 0 0 0 
	 5 1 2 -5.569429960577353 -6.887819636801629 -4.184091100650009 0 0 0 
	 6 1 2 -4.766741077228488 -6.424969871444644 -4.435209899741469 0 0 0 
	 8 1 2 -6.625120033864639 -8.155760771566502 -4.390594727576625 0 0 0 
	 9 1 2 -6.87812122380306 -8.960852140974394 -4.848217153594701 0 0 0 
	 4 1 3 -7.792145385236532 -6.466545258360434 -2.102057470025577 0 0 0 
	 7 1 3 -4.2985058952749835 -6.154974174986404 -4.581695865878155 0 0 0 
	 10 1 3 -7.025705251267138 -9.430488773128996 -5.115163568771913 0 0 0 
	 11 2 1 -3.3299378109309963 -2.906065194265357 -3.9215806583088697 0 0 0 
	 12 2 2 -3.032076609727583 -2.587789288869235 -4.776904662918783 0 0 0 
	 13 2 2 -2.7342154085241694 -2.2695133834731136 -5.632228667528696 0 0 0 
	 15 2 2 -4.17529524243003 -3.3543487595214003 -3.84403932655162 0 0 0 
	 16 2 2 -5.020652673929063 -3.8026323247774436 -3.7664979947943698 0 0 0 
	 18 2 2 -2.7824415806353766 -2.7760575344054357 -3.1437979854562066 0 0 0 
	 19 2 2 -2.2349453503397574 -2.6460498745455143 -2.3660153126035435 0 0 0 
	 14 2 3 -2.5604630411555114 -2.083852438658709 -6.1311676702178115 0 0 0 
	 17 2 3 -5.513777842303499 -4.064131071176802 -3.7212655512693074 0 0 0 
	 20 2 3 -1.9155725493339792 -2.57021207296056 -1.9123087534394902 0 0 0 
	 21 3 1 7.692577294082619 1.2535866363450832 6.4512669524230315 0 0 0 
	 22 3 2 6.952351296410626 1.2463307295950556 7.062505714436483 0 0 0 
	 23 3 2 6.212125298738632 1.2390748228450283 7.673744476449936 0 0 0 
	 25 3 2 7.567768241695497 0.9692794201599209 5.5428661007791815 0 0 0 
	 26 3 2 7.442959189308374 0.6849722039747587 4.6344652491353315 0 0 0 
	 28 3 2 8.557612344141733 1.5451497592802728 6.748429042053429 0 0 0 
	 29 3 2 9.422647394200848 1.8367128822154621 7.0455911316838264 0 0 0 
	 24 3 3 5.780326800096637 1.234842210574179 8.030300420957783 0 0 0 
	 27 3 3 7.370153908749221 0.5191263278667475 4.1045647523430855 0 0 0 
	 30 3 3 9.927251173401999 2.006791370594323 7.218935683968225 0 0 0 
	 31 4 1 0.7525134899081065 3.498264084533429 -5.62857181148857 0 0 0 
	 32 4 2 0.5806137459956096 4.428874164169705 -5.789864581699087 0 0 0 
	 33 4 2 0.4087140020831126 5.35948424380598 -5.951157351909605 0 0 0 
	 35 4 2 0.19085245224152192 3.0035493596357483 -5.027411084447366 0 0 0 
	 36 4 2 -0.3708085854250627 2.5088346347380677 -4.426250357406163 0 0 0 
	 38 4 2 1.4860742714871877 3.0623687297948337 -6.068439768319255 0 0 0 
	 39 4 2 2.219635053066269 2.6264733750562383 -6.50830772514994 0 0 0 
	 34 4 3 0.30843915146748946 5.902340123593808 -6.045244801199073 0 0 0 
	 37 4 3 -0.6984441907305703 2.220251045214421 -4.075573266632128 0 0 0 
	 40 4 3 2.6475455089874 2.372201084792058 -6.764897366634507 0 0 0 
	 41 5 1 0.7403159798189463 5.40188229540882 -0.8163598922777093 0 0 0 
	 42 5 2 1.23911032095751 4.862192492153315 -1.4340484234244193 0 0 0 
	 43 5 2 1.737904662096074 4.322502688897809 -2.051736954571129 0 0 0 
	 45 5 2 0.25155070332357254 6.165414319136488 -1.132156271665966 0 0 0 
	 46 5 2 -0.23721457317180117 6.928946342864157 -1.4479526510542229 0 0 0 
	 48 5 2 0.7302869151757556 5.178040074936656 0.11712501825725685 0 0 0 
	 49 5 2 0.720257850532565 4.954197854464494 1.050609928792223 0 0 0 
	 44 5 3 2.028868027760237 4.007683636998765 -2.4120552644067095 0 0 0 
	 47 5 3 -0.5223276511274355 7.374340023371964 -1.6321672056973726 0 0 0 
	 50 5 3 0.7144075628240372 4.823623225855732 1.595142793270953 0 0 0 
	 51 6 1 -7.045273776265745 1.935617089537945 0.2003598096838598 0 0 0 
	 52 6 2 -7.905974091379489 1.5168918028187288 0.12644024647483365 0 0 0 
	 53 6 2 -8.766674406493232 1.0981665160995133 0.052520683265807167 0 0 0 
	 55 6 2 -6.517626497343283 1.8116307508697742 0.9927080518535407 0 0 0 
	 56 6 2 -5.98997921842082 1.687644412201604 1.785056294023222 0 0 0 
	 58 6 2 -6.712220740074464 2.478328714925331 -0.518068869276793 0 0 0 
	 59 6 2 -6.3791677038831835 3.021040340312718 -1.2364975482374476 0 0 0 
	 54 6 3 -9.268749590309582 0.8539100988466368 0.00940093806054243 0 0 0 
	 57 6 3 -5.682184972382716 1.6153190479785045 2.2472594352888673 0 0 0 
	 60 6 3 -6.1848867661049365 3.3376221217886926 -1.6555809442978289 0 0 0 
	 61 7 1 -6.020109563218295 6.9337892037269615 -3.3061154328703357 0 0 0 
	 62 7 2 -6.244552272801994 7.022657358099603 -2.376961020916581 0 0 0 
	 63 7 2 -6.468994982385694 7.111525512472244 -1.4478066089628265 0 0 0 
	 65 7 2 -6.234467325456667 6.124820720555222 -3.7764565250608575 0 0 0 
	 66 7 2 -6.44882508769504 5.315852237383483 -4.24679761725138 0 0 0 
	 68 7 2 -5.581309091396223 7.653889532526059 -3.7649287526335686 0 0 0 
	 69 7 2 -5.142508619574151 8.373989861325157 -4.223742072396801 0 0 0 
	 64 7 3 -6.599919896309519 7.163365269189618 -0.9057998686564699 0 0 0 
	 67 7 3 -6.573867115667424 4.843953955533302 -4.521163254362517 0 0 0 
	 70 7 3 -4.8865416776779425 8.794048386457963 -4.49138317559202 0 0 0 
	 71 8 1 3.08742468248407 8.011198483509713 4.371576635855421 0 0 0 
	 72 8 2 2.2221934312102904 8.011350895552608 4.787479098687488 0 0 0 
	 73 8 2 1.3569621799365108 8.011503307595504 5.203381561519554 0 0 0 
	 75 8 2 3.716271965297989 7.314107887876887 4.572115401129924 0 0 0 
	 76 8 2 4.345119248111908 6.61701729224406 4.772654166404426 0 0 0 
	 78 8 2 3.3238086509439313 8.708136667099643 3.7551354077488517 0 0 0 
	 79 8 2 3.560192619403792 9.405074850689573 3.138694179642282 0 0 0 
	 74 8 3 0.8522439500268062 8.011592214620526 5.445991331504927 0 0 0 
	 77 8 3 4.71194682975336 6.210381111458244 4.889635112814553 0 0 0 
	 80 8 3 3.698083267672044 9.811622124450366 2.7791034632467833 0 0 0 
	 81 9 4 -0.11414802835756885 2.1416037560238768 0.19882581893741524 0 0 0 
	 82 9 5 -1.012292751150253 2.4781380906946118 0.2398221420332889 0 0 0 
	 83 9 6 -1.9104374739429346 2.8146724253653455 0.2808184651291631 0 0 0 
	 84 9 7 -2.8085821967356184 3.151206760036082 0.32181478822503706 0 0 0 
	 85 9 8 -3.7067269195283035 3.4877410947068155 0.3628111113209113 0 0 0 
	 86 9 4 -4.604871642320987 3.824275429377548 0.40380743441678424 0 0 0 
	 87 10 4 -3.492189821188798 7.95357900817228 -6.976089033361346 0 0 0 
	 88 10 5 -3.7158737681951033 7.53081746337085 -6.143720023793601 0 0 0 
	 89 10 6 -3.939557715201409 7.108055918569421 -5.311351014225856 0 0 0 
	 90 10 7 -4.163241662207714 6.685294373767991 -4.478982004658111 0 0 0 
	 91 10 8 -4.386925609214019 6.262532828966561 -3.646612995090366 0 0 0 
	 92 10 4 -4.610609556220325 5.839771284165131 -2.8142439855226202 0 0 0 
	 93 11 4 -0.9888982142778069 -8.983374127111007 6.7523335545592555 0 0 0 
	 94 11 5 -0.3709015970194455 -8.272651065998824 6.938217689063924 0 0 0 
	 95 11 6 0.24709502023891594 -7.5619280048866395 7.1241018235685925 0 0 0 
	 96 11 7 0.865091637497277 -6.851204943774455 7.309985958073262 0 0 0 
	 97 11 8 1.4830882547556388 -6.140481882662272 7.495870092577929 0 0 0 
	 98 11 4 2.101084872014 -5.429758821550088 7.681754227082599 0 0 0 
	 99 12 4 -6.900391658336467 9.138413945719343 1.3798019516804438 0 0 0 
	 100 12 5 -7.262214209658285 8.274954998194241 1.5922239074520004 0 0 0 
	 101 12 6 -7.624036760980102 7.411496050669138 1.804645863223557 0 0 0 
	 102 12 7 -7.985859312301921 6.548037103144036 2.0170678189951134 0 0 0 
	 103 12 8 -8.347681863623738 5.684578155618934 2.22948977476667 0 0 0 
	 104 12 4 -8.709504414945556 4.8211192080938305 2.4419117305382265 0 0 0 
	 105 13 4 -4.189555800155906 0.5577563115485384 -5.161409814596896 0 0 0 
	 106 13 5 -5.086078556299341 0.6098575352453283 -4.82209814340612 0 0 0 
	 107 13 6 -5.9826013124427755 0.661958758942118 -4.482786472215345 0 0 0 
	 108 13 7 -6.87912406858621 0.7140599826389078 -4.143474801024569 0 0 0 
	 109 13 8 -7.775646824729645 0.7661612063356975 -3.804163129833794 0 0 0 
	 110 13 4 -8.672169580873078 0.8182624300324873 -3.464851458643018 0 0 0 
	 111 14 4 8.736950632857134 -2.90805366142876 5.783821835692469 0 0 0 
	 112 14 5 7.821684602440739 -2.770581378913988 5.528891521477005 0 0 0 
	 113 14 6 6.906418572024345 -2.6331090963992163 5.273961207261543 0 0 0 
	 114 14 7 5.991152541607951 -2.495636813884445 5.01903089304608 0 0 0 
	 115 14 8 5.075886511191556 -2.358164531369673 4.764100578830617 0 0 0 
	 116 14 4 4.160620480775162 -2.2206922488549012 4.509170264615154 0 0 0 
	 117 15 4 -2.150550388205985 -1.3870434283212285 6.271829616036522 0 0 0 
	 118 15 5 -2.9062105519255157 -0.8865030271025178 5.9555433158033555 0 0 0 
	 119 15 6 -3.6618707156450467 -0.38596262588380714 5.63925701557019 0 0 0 
	 120 15 7 -4.417530879364577 0.11457777533490399 5.322970715337024 0 0 0 
	 121 15 8 -5.173191043084108 0.6151181765536142 5.006684415103858 0 0 0 
	 122 15 4 -5.928851206803638 1.115658577772325 4.690398114870693 0 0 0 
	 123 16 4 0.5580652829321653 0.7443005583400608 7.635797879891076 0 0 0 
	 124 16 5 1.4478776437181788 1.0630448708468538 7.803833667260889 0 0 0 
	 125 16 6 2.3376900045041924 1.3817891833536466 7.971869454630703 0 0 0 
	 126 16 7 3.227502365290206 1.7005334958604394 8.139905242000516 0 0 0 
	 127 16 8 4.11731472607622 2.0192778083672325 8.30794102937033 0 0 0 
	 128 16 4 5.0071270868622335 2.3380221208740255 8.475976816740143 0 0 0 


Bonds 

	 1 1 1 2 
	 2 1 2 3 
	 3 1 1 5 
	 4 1 5 6 
	 5 1 1 8 
	 6 1 8 9 
	 7 2 3 4 
	 8 2 6 7 
	 9 2 9 10 
	 10 1 11 12 
	 11 1 12 13 
	 12 1 11 15 
	 13 1 15 16 
	 14 1 11 18 
	 15 1 18 19 
	 16 2 13 14 
	 17 2 16 17 
	 18 2 19 20 
	 19 1 21 22 
	 20 1 22 23 
	 21 1 21 25 
	 22 1 25 26 
	 23 1 21 28 
	 24 1 28 29 
	 25 2 23 24 
	 26 2 26 27 
	 27 2 29 30 
	 28 1 31 32 
	 29 1 32 33 
	 30 1 31 35 
	 31 1 35 36 
	 32 1 31 38 
	 33 1 38 39 
	 34 2 33 34 
	 35 2 36 37 
	 36 2 39 40 
	 37 1 41 42 
	 38 1 42 43 
	 39 1 41 45 
	 40 1 45 46 
	 41 1 41 48 
	 42 1 48 49 
	 43 2 43 44 
	 44 2 46 47 
	 45 2 49 50 
	 46 1 51 52 
	 47 1 52 53 
	 48 1 51 55 
	 49 1 55 56 
	 50 1 51 58 
	 51 1 58 59 
	 52 2 53 54 
	 53 2 56 57 
	 54 2 59 60 
	 55 1 61 62 
	 56 1 62 63 
	 57 1 61 65 
	 58 1 65 66 
	 59 1 61 68 
	 60 1 68 69 
	 61 2 63 64 
	 62 2 66 67 
	 63 2 69 70 
	 64 1 71 72 
	 65 1 72 73 
	 66 1 71 75 
	 67 1 75 76 
	 68 1 71 78 
	 69 1 78 79 
	 70 2 73 74 
	 71 2 76 77 
	 72 2 79 80 
	 73 2 81 82 
	 74 1 82 83 
	 75 1 83 84 
	 76 1 84 85 
	 77 2 85 86 
	 78 2 87 88 
	 79 1 88 89 
	 80 1 89 90 
	 81 1 90 91 
	 82 2 91 92 
	 83 2 93 94 
	 84 1 94 95 
	 85 1 95 96 
	 86 1 96 97 
	 87 2 97 98 
	 88 2 99 100 
	 89 1 100 101 
	 90 1 101 102 
	 91 1 102 103 
	 92 2 103 104 
	 93 2 105 106 
	 94 1 106 107 
	 95 1 107 108 
	 96 1 108 109 
	 97 2 109 110 
	 98 2 111 112 
	 99 1 112 113 
	 100 1 113 114 
	 101 1 114 115 
	 102 2 115 116 
	 103 2 117 118 
	 104 1 118 119 
	 105 1 119 120 
	 106 1 120 121 
	 107 2 121 122 
	 108 2 123 124 
	 109 1 124 125 
	 110 1 125 126 
	 111 1 126 127 
	 112 2 127 128 


Angles 

	 1 1 2 1 5 
	 2 1 5 1 8 
	 3 1 8 1 2 
	 4 2 1 2 3 
	 5 4 2 3 4 
	 6 2 1 5 6 
	 7 4 5 6 7 
	 8 2 1 8 9 
	 9 4 8 9 10 
	 10 1 12 11 15 
	 11 1 15 11 18 
	 12 1 18 11 12 
	 13 2 11 12 13 
	 14 4 12 13 14 
	 15 2 11 15 16 
	 16 4 15 16 17 
	 17 2 11 18 19 
	 18 4 18 19 20 
	 19 1 22 21 25 
	 20 1 25 21 28 
	 21 1 28 21 22 
	 22 2 21 22 23 
	 23 4 22 23 24 
	 24 2 21 25 26 
	 25 4 25 26 27 
	 26 2 21 28 29 
	 27 4 28 29 30 
	 28 1 32 31 35 
	 29 1 35 31 38 
	 30 1 38 31 32 
	 31 2 31 32 33 
	 32 4 32 33 34 
	 33 2 31 35 36 
	 34 4 35 36 37 
	 35 2 31 38 39 
	 36 4 38 39 40 
	 37 1 42 41 45 
	 38 1 45 41 48 
	 39 1 48 41 42 
	 40 2 41 42 43 
	 41 4 42 43 44 
	 42 2 41 45 46 
	 43 4 45 46 47 
	 44 2 41 48 49 
	 45 4 48 49 50 
	 46 1 52 51 55 
	 47 1 55 51 58 
	 48 1 58 51 52 
	 49 2 51 52 53 
	 50 4 52 53 54 
	 51 2 51 55 56 
	 52 4 55 56 57 
	 53 2 51 58 59 
	 54 4 58 59 60 
	 55 1 62 61 65 
	 56 1 65 61 68 
	 57 1 68 61 62 
	 58 2 61 62 63 
	 59 4 62 63 64 
	 60 2 61 65 66 
	 61 4 65 66 67 
	 62 2 61 68 69 
	 63 4 68 69 70 
	 64 1 72 71 75 
	 65 1 75 71 78 
	 66 1 78 71 72 
	 67 2 71 72 73 
	 68 4 72 73 74 
	 69 2 71 75 76 
	 70 4 75 76 77 
	 71 2 71 78 79 
	 72 4 78 79 80 
	 73 3 81 82 83 
	 74 2 82 83 84 
	 75 2 83 84 85 
	 76 3 84 85 86 
	 77 3 87 88 89 
	 78 2 88 89 90 
	 79 2 89 90 91 
	 80 3 90 91 92 
	 81 3 93 94 95 
	 82 2 94 95 96 
	 83 2 95 96 97 
	 84 3 96 97 98 
	 85 3 99 100 101 
	 86 2 100 101 102 
	 87 2 101 102 103 
	 88 3 102 103 104 
	 89 3 105 106 107 
	 90 2 106 107 108 
	 91 2 107 108 109 
	 92 3 108 109 110 
	 93 3 111 112 113 
	 94 2 112 113 114 
	 95 2 113 114 115 
	 96 3 114 115 116 
	 97 3 117 118 119 
	 98 2 118 119 120 
	 99 2 119 120 121 
	 100 3 120 121 122 
	 101 3 123 124 125 
	 102 2 124 125 126 
	 103 2 125 126 127 
	 104 3 126 127 128 
