LAMMPS FENE chain data file 

100  atoms          
90  bonds          
90  angles         
0  dihedrals      
0  impropers    

4  atom types     
2  bond types     
2  angle types    
0  dihedral types 
0  improper types 

-6.000000 6.000000 xlo xhi  
-6.000000 6.000000 ylo yhi  
-6.000000 6.000000 zlo zhi  

Masses

	 1 1.0 
	 2 1.0 
	 3 1.0 
	 4 1.0 

Atoms 

	 1 1 1 0.9416083394020078 1.540806880624202 4.064974161218691 0 0 0 
	 2 1 2 0.7093695567970557 2.437354080517105 4.317695878169104 0 0 0 
	 3 1 2 0.4771307741921036 3.333901280410008 4.570417595119517 0 0 0 
	 5 1 2 1.1243848189927184 0.8837370503461253 4.740586473604105 0 0 0 
	 6 1 2 1.3071612985834289 0.22666722006804862 5.416198785989518 0 0 0 
	 8 1 2 0.9910706424162494 1.3013295110093752 3.136640131882865 0 0 0 
	 9 1 2 1.040532945430491 1.0618521413945485 2.2083061025470387 0 0 0 
	 4 1 3 0.34165815100588137 3.8568871470142017 4.717838596673924 0 0 0 
	 7 1 3 1.4137809116780102 -0.1566235142608292 5.810305968214344 0 0 0 
	 10 1 3 1.069385955522132 0.922157009119233 1.666777918767807 0 0 0 
	 11 2 1 -2.286372542971044 1.965366449883088 -0.8379984633572666 0 0 0 
	 12 2 2 -1.6247918234784176 1.3560640914877713 -1.1736494541937654 0 0 0 
	 13 2 2 -0.9632111039857909 0.7467617330924545 -1.5093004450302643 0 0 0 
	 15 2 2 -3.079715351235075 1.6276935804464459 -0.41587973382472676 0 0 0 
	 16 2 2 -3.873058159499106 1.2900207110098036 0.006238995707813055 0 0 0 
	 18 2 2 -2.15461045419964 2.9123416777150464 -0.9244662020533072 0 0 0 
	 19 2 2 -2.0228483654282363 3.859316905547005 -1.0109339407493478 0 0 0 
	 14 2 4 -0.577289017615092 0.39133535736185343 -1.7050968563515556 0 0 0 
	 17 2 4 -4.335841464319791 1.093044870505096 0.25247492126846116 0 0 0 
	 20 2 4 -1.9459871469782506 4.411719121782314 -1.061373454988705 0 0 0 
	 21 3 1 -0.16452983266807708 5.238279090001241 3.01946174908795 0 0 0 
	 22 3 2 -0.347491574635842 5.421707619927933 2.095081429422363 0 0 0 
	 23 3 2 -0.530453316603607 5.605136149854625 1.1707011097567754 0 0 0 
	 25 3 2 0.6462964523374927 4.7885266013212195 3.268225561709871 0 0 0 
	 26 3 2 1.4571227373430624 4.3387741126411985 3.516989374331793 0 0 0 
	 28 3 2 -0.7923943757058813 5.50460304875457 3.6950782561316164 0 0 0 
	 29 3 2 -1.4202589187436856 5.770927007507898 4.370694763175282 0 0 0 
	 24 3 3 -0.6371809994181366 5.712136125645195 0.6314792566185163 0 0 0 
	 27 3 3 1.9301047369296445 4.07641849424452 3.6621015983612466 0 0 0 
	 30 3 3 -1.7865132355157385 5.926282650114006 4.764804392284088 0 0 0 
	 31 4 1 0.6124406864784526 2.8972357963113597 -1.013584425213651 0 0 0 
	 32 4 2 1.1392228018348172 2.20277958133955 -0.6113019766433689 0 0 0 
	 33 4 2 1.6660049171911813 1.5083233663677398 -0.20901952807308732 0 0 0 
	 35 4 2 0.4878867552761441 3.7316510477876337 -0.5555041851619337 0 0 0 
	 36 4 2 0.36333282407383605 4.566066299263906 -0.09742394511021701 0 0 0 
	 38 4 2 0.2102125023243978 2.7572767598068975 -1.8739471138356492 0 0 0 
	 39 4 2 -0.19201568182965778 2.6173177233024347 -2.7343098024576475 0 0 0 
	 34 4 4 1.9732944844823939 1.1032239076341832 0.025645233592910432 0 0 0 
	 37 4 4 0.2906763642058223 5.052808529291732 0.16978952825328453 0 0 0 
	 40 4 4 -0.42664878925285665 2.535674952008164 -3.236188037487146 0 0 0 
	 41 5 1 -0.5322680276414115 -1.3137239219060932 1.7325071506814358 0 0 0 
	 42 5 2 -1.032193307190259 -0.49961364394235996 1.82684256387192 0 0 0 
	 43 5 2 -1.5321185867391063 0.3144966340213734 1.921177977062404 0 0 0 
	 45 5 2 -0.9479378026878178 -2.090896366086058 1.3519527785869732 0 0 0 
	 46 5 2 -1.3636075777342243 -2.868068810266021 0.9713984064925101 0 0 0 
	 48 5 2 0.38332702695384174 -1.3506617556898632 2.018726109585414 0 0 0 
	 49 5 2 1.2989220815490952 -1.387599589473633 2.304945068489393 0 0 0 
	 44 5 3 -1.8237416664759336 0.7893942961668853 1.9762069680901864 0 0 0 
	 47 5 3 -1.6060816131779614 -3.3214194027043336 0.7494083561040737 0 0 0 
	 50 5 3 1.8330191967296598 -1.409146659180832 2.471906127850047 0 0 0 
	 51 6 1 -1.565307577796187 -3.0141993637052495 -2.0254443123511843 0 0 0 
	 52 6 2 -0.8924669902823342 -3.4686322910884257 -2.537671076884208 0 0 0 
	 53 6 2 -0.21962640276848067 -3.923065218471603 -3.0498978414172306 0 0 0 
	 55 6 2 -1.6381602130104114 -2.0579983685560377 -2.069853212562738 0 0 0 
	 56 6 2 -1.711012848224636 -1.1017973734068258 -2.1142621127742935 0 0 0 
	 58 6 2 -2.1652955300958165 -3.5159674314712843 -1.468808647606607 0 0 0 
	 59 6 2 -2.765283482395445 -4.01773549923732 -0.9121729828620284 0 0 0 
	 54 6 4 0.1728639399479326 -4.188151092778456 -3.3486967873948275 0 0 0 
	 57 6 4 -1.7535102187662674 -0.5440134595697854 -2.140167304564366 0 0 0 
	 60 6 4 -3.115276454570229 -4.310433538767505 -0.5874688450943585 0 0 0 
	 61 7 1 2.5727074786854334 -4.190215353894543 -3.9612731879323912 0 0 0 
	 62 7 2 1.9311340020607934 -3.838043721865963 -4.582528864514987 0 0 0 
	 63 7 2 1.2895605254361535 -3.4858720898373825 -5.203784541097582 0 0 0 
	 65 7 2 2.2924680430514037 -4.462083559644531 -3.084259198638149 0 0 0 
	 66 7 2 2.0122286074173736 -4.7339517653945205 -2.207245209343906 0 0 0 
	 68 7 2 3.494520390944103 -4.270518780173135 -4.217031500644038 0 0 0 
	 69 7 2 4.416333303202773 -4.350822206451727 -4.472789813355685 0 0 0 
	 64 7 3 0.9153093307384466 -3.2804386378207107 -5.566183685770763 0 0 0 
	 67 7 3 1.8487556032975232 -4.8925415520820135 -1.6956537155889313 0 0 0 
	 70 7 3 4.95405750202033 -4.397665871780905 -4.6219821624374795 0 0 0 
	 71 8 1 3.4496140225254575 1.8229376785515412 3.927321798696613 0 0 0 
	 72 8 2 3.6398684853270207 2.396204066469704 4.673491275335364 0 0 0 
	 73 8 2 3.830122948128583 2.9694704543878676 5.419660751974117 0 0 0 
	 75 8 2 3.557533087127692 0.8728079630249314 4.012215845417816 0 0 0 
	 76 8 2 3.6654521517299266 -0.0773217525016785 4.097109892139018 0 0 0 
	 78 8 2 3.151440495121659 2.199801006159986 3.0962582753366554 0 0 0 
	 79 8 2 2.8532669677178606 2.576664333768432 2.265194751976698 0 0 0 
	 74 8 4 3.9411047180961623 3.3038758473401293 5.85492628001339 0 0 0 
	 77 8 4 3.728404939414565 -0.6315640865588679 4.146631419393055 0 0 0 
	 80 8 4 2.6793324100656446 2.7965012748733598 1.7804076966833915 0 0 0 
	 81 9 1 1.5356811779938546 -0.9334098165954847 -0.47670087429701646 0 0 0 
	 82 9 2 1.700180411217309 -0.8267697028191414 -1.4164709995950413 0 0 0 
	 83 9 2 1.8646796444407632 -0.7201295890427893 -2.356241124893066 0 0 0 
	 85 9 2 1.043515089698813 -0.26349956997036494 0.00349992016195623 0 0 0 
	 86 9 2 0.5513490014037743 0.4064106766547557 0.48370071462093184 0 0 0 
	 88 9 2 1.8633480330654382 -1.7099601769969484 -0.017131543457967302 0 0 0 
	 89 9 2 2.19101488813702 -2.4865105373984155 0.4424377873810823 0 0 0 
	 84 9 3 1.9606375304877797 -0.6579228560065882 -2.9044403646502484 0 0 0 
	 87 9 3 0.2642521165650016 0.7971916538527422 0.763817844722001 0 0 0 
	 90 9 3 2.3821538869287777 -2.9394982476326095 0.7105198970371925 0 0 0 
	 91 10 1 -2.5711556331754584 -1.5608673688617372 -4.237714045337377 0 0 0 
	 92 10 2 -3.375971728424652 -1.5026999712298927 -3.7176298149663918 0 0 0 
	 93 10 2 -4.180787823673845 -1.4445325735980483 -3.197545584595406 0 0 0 
	 95 10 2 -1.9284139743682622 -0.8483743273157649 -4.208786104132664 0 0 0 
	 96 10 2 -1.285672315561066 -0.13588128576979264 -4.1798581629279505 0 0 0 
	 98 10 2 -2.409081196733461 -2.3315278080395534 -4.786726216913076 0 0 0 
	 99 10 2 -2.2470067602914634 -3.1021882472173696 -5.335738388488774 0 0 0 
	 94 10 4 -4.650263879235874 -1.410601591646139 -2.894163116878998 0 0 0 
	 97 10 4 -0.9107396812568687 0.27973965513202437 -4.1629835305585345 0 0 0 
	 100 10 4 -2.152463339033632 -3.5517401700710955 -5.6559954885745976 0 0 0 


Bonds 

	 1 1 1 2 
	 2 1 2 3 
	 3 1 1 5 
	 4 1 5 6 
	 5 1 1 8 
	 6 1 8 9 
	 7 2 3 4 
	 8 2 6 7 
	 9 2 9 10 
	 10 1 11 12 
	 11 1 12 13 
	 12 1 11 15 
	 13 1 15 16 
	 14 1 11 18 
	 15 1 18 19 
	 16 2 13 14 
	 17 2 16 17 
	 18 2 19 20 
	 19 1 21 22 
	 20 1 22 23 
	 21 1 21 25 
	 22 1 25 26 
	 23 1 21 28 
	 24 1 28 29 
	 25 2 23 24 
	 26 2 26 27 
	 27 2 29 30 
	 28 1 31 32 
	 29 1 32 33 
	 30 1 31 35 
	 31 1 35 36 
	 32 1 31 38 
	 33 1 38 39 
	 34 2 33 34 
	 35 2 36 37 
	 36 2 39 40 
	 37 1 41 42 
	 38 1 42 43 
	 39 1 41 45 
	 40 1 45 46 
	 41 1 41 48 
	 42 1 48 49 
	 43 2 43 44 
	 44 2 46 47 
	 45 2 49 50 
	 46 1 51 52 
	 47 1 52 53 
	 48 1 51 55 
	 49 1 55 56 
	 50 1 51 58 
	 51 1 58 59 
	 52 2 53 54 
	 53 2 56 57 
	 54 2 59 60 
	 55 1 61 62 
	 56 1 62 63 
	 57 1 61 65 
	 58 1 65 66 
	 59 1 61 68 
	 60 1 68 69 
	 61 2 63 64 
	 62 2 66 67 
	 63 2 69 70 
	 64 1 71 72 
	 65 1 72 73 
	 66 1 71 75 
	 67 1 75 76 
	 68 1 71 78 
	 69 1 78 79 
	 70 2 73 74 
	 71 2 76 77 
	 72 2 79 80 
	 73 1 81 82 
	 74 1 82 83 
	 75 1 81 85 
	 76 1 85 86 
	 77 1 81 88 
	 78 1 88 89 
	 79 2 83 84 
	 80 2 86 87 
	 81 2 89 90 
	 82 1 91 92 
	 83 1 92 93 
	 84 1 91 95 
	 85 1 95 96 
	 86 1 91 98 
	 87 1 98 99 
	 88 2 93 94 
	 89 2 96 97 
	 90 2 99 100 


Angles 

	 1 1 2 1 5 
	 2 1 5 1 8 
	 3 1 8 1 2 
	 4 2 1 2 3 
	 5 2 2 3 4 
	 6 2 1 5 6 
	 7 2 5 6 7 
	 8 2 1 8 9 
	 9 2 8 9 10 
	 10 1 12 11 15 
	 11 1 15 11 18 
	 12 1 18 11 12 
	 13 2 11 12 13 
	 14 2 12 13 14 
	 15 2 11 15 16 
	 16 2 15 16 17 
	 17 2 11 18 19 
	 18 2 18 19 20 
	 19 1 22 21 25 
	 20 1 25 21 28 
	 21 1 28 21 22 
	 22 2 21 22 23 
	 23 2 22 23 24 
	 24 2 21 25 26 
	 25 2 25 26 27 
	 26 2 21 28 29 
	 27 2 28 29 30 
	 28 1 32 31 35 
	 29 1 35 31 38 
	 30 1 38 31 32 
	 31 2 31 32 33 
	 32 2 32 33 34 
	 33 2 31 35 36 
	 34 2 35 36 37 
	 35 2 31 38 39 
	 36 2 38 39 40 
	 37 1 42 41 45 
	 38 1 45 41 48 
	 39 1 48 41 42 
	 40 2 41 42 43 
	 41 2 42 43 44 
	 42 2 41 45 46 
	 43 2 45 46 47 
	 44 2 41 48 49 
	 45 2 48 49 50 
	 46 1 52 51 55 
	 47 1 55 51 58 
	 48 1 58 51 52 
	 49 2 51 52 53 
	 50 2 52 53 54 
	 51 2 51 55 56 
	 52 2 55 56 57 
	 53 2 51 58 59 
	 54 2 58 59 60 
	 55 1 62 61 65 
	 56 1 65 61 68 
	 57 1 68 61 62 
	 58 2 61 62 63 
	 59 2 62 63 64 
	 60 2 61 65 66 
	 61 2 65 66 67 
	 62 2 61 68 69 
	 63 2 68 69 70 
	 64 1 72 71 75 
	 65 1 75 71 78 
	 66 1 78 71 72 
	 67 2 71 72 73 
	 68 2 72 73 74 
	 69 2 71 75 76 
	 70 2 75 76 77 
	 71 2 71 78 79 
	 72 2 78 79 80 
	 73 1 82 81 85 
	 74 1 85 81 88 
	 75 1 88 81 82 
	 76 2 81 82 83 
	 77 2 82 83 84 
	 78 2 81 85 86 
	 79 2 85 86 87 
	 80 2 81 88 89 
	 81 2 88 89 90 
	 82 1 92 91 95 
	 83 1 95 91 98 
	 84 1 98 91 92 
	 85 2 91 92 93 
	 86 2 92 93 94 
	 87 2 91 95 96 
	 88 2 95 96 97 
	 89 2 91 98 99 
	 90 2 98 99 100 
